<?xml version="1.0" encoding="UTF-8"?>

<!-- generated on 2023-05-16 13:10:50 by Eclipse SUMO sumo Version 1.16.0
<configuration xmlns:xsi="http://www.w3.org/2001/XMLSchema-instance" xsi:noNamespaceSchemaLocation="http://sumo.dlr.de/xsd/sumoConfiguration.xsd">

    <input>
        <net-file value="creators/sumo_files/app.net.xml"/>
        <route-files value="creators/sumo_files/app.rou.xml"/>
        <additional-files value="creators/sumo_files/app.program.xml"/>
    </input>

    <output>
        <tripinfo-output value="app.tripinfo.xml"/>
    </output>

    <time>
        <begin value="0"/>
        <end value="54900"/>
    </time>

    <processing>
        <time-to-teleport value="-1"/>
        <waiting-time-memory value="1000"/>
    </processing>

    <report>
        <verbose value="true"/>
        <no-step-log value="true"/>
    </report>

    <traci_server>
        <remote-port value="52035"/>
    </traci_server>

    <gui_only>
        <quit-on-end value="true"/>
        <start value="true"/>
    </gui_only>

</configuration>
-->

<tripinfos xmlns:xsi="http://www.w3.org/2001/XMLSchema-instance" xsi:noNamespaceSchemaLocation="http://sumo.dlr.de/xsd/tripinfo_file.xsd">
    <tripinfo id="I0" depart="0.00" departLane="E_1_0_0" departPos="5.10" departSpeed="0.00" departDelay="0.00" arrival="74.00" arrivalLane="E_0_2_0" arrivalPos="480.00" arrivalSpeed="14.06" duration="74.00" routeLength="994.98" waitingTime="0.00" waitingCount="0" stopTime="0.00" timeLoss="6.39" rerouteNo="0" devices="tripinfo_I0" vType="CarA" speedFactor="1.06" vaporized=""/>
    <tripinfo id="V134714" depart="2.00" departLane="E_2_0_3" departPos="0.00" departSpeed="10.00" departDelay="0.00" arrival="74.00" arrivalLane="E_0_1_0" arrivalPos="483.20" arrivalSpeed="13.61" duration="72.00" routeLength="1000.70" waitingTime="0.00" waitingCount="0" stopTime="0.00" timeLoss="3.50" rerouteNo="0" devices="tripinfo_V134714" vType="CarA" speedFactor="1.06" vaporized=""/>
    <tripinfo id="I10" depart="2.00" departLane="E_2_0_0" departPos="5.10" departSpeed="0.00" departDelay="2.00" arrival="78.00" arrivalLane="E_0_4_0" arrivalPos="476.80" arrivalSpeed="14.29" duration="76.00" routeLength="969.20" waitingTime="0.00" waitingCount="0" stopTime="0.00" timeLoss="10.61" rerouteNo="0" devices="tripinfo_I10" vType="CarA" speedFactor="1.09" vaporized=""/>
    <tripinfo id="I19" depart="7.00" departLane="E_2_0_0" departPos="5.10" departSpeed="0.00" departDelay="7.00" arrival="78.00" arrivalLane="E_0_4_1" arrivalPos="476.80" arrivalSpeed="15.76" duration="71.00" routeLength="969.20" waitingTime="0.00" waitingCount="0" stopTime="0.00" timeLoss="9.15" rerouteNo="0" devices="tripinfo_I19" vType="CarA" speedFactor="1.16" vaporized=""/>
    <tripinfo id="I4" depart="6.00" departLane="E_1_0_0" departPos="5.10" departSpeed="0.00" departDelay="6.00" arrival="83.00" arrivalLane="E_0_3_0" arrivalPos="480.00" arrivalSpeed="13.75" duration="77.00" routeLength="967.13" waitingTime="1.00" waitingCount="1" stopTime="0.00" timeLoss="8.62" rerouteNo="0" devices="tripinfo_I4" vType="CarA" speedFactor="1.03" vaporized=""/>
    <tripinfo id="I14" depart="5.00" departLane="E_2_0_0" departPos="5.10" departSpeed="0.00" departDelay="5.00" arrival="84.00" arrivalLane="E_0_1_0" arrivalPos="483.20" arrivalSpeed="12.96" duration="79.00" routeLength="995.60" waitingTime="0.00" waitingCount="0" stopTime="0.00" timeLoss="6.45" rerouteNo="0" devices="tripinfo_I14" vType="CarA" speedFactor="0.99" vaporized=""/>
    <tripinfo id="V134728" depart="11.00" departLane="E_2_0_1" departPos="0.00" departSpeed="10.00" departDelay="0.00" arrival="89.00" arrivalLane="E_0_1_0" arrivalPos="483.20" arrivalSpeed="13.17" duration="78.00" routeLength="1000.70" waitingTime="0.00" waitingCount="0" stopTime="0.00" timeLoss="5.13" rerouteNo="0" devices="tripinfo_V134728" vType="CarA" speedFactor="0.99" vaporized=""/>
    <tripinfo id="I13" depart="12.00" departLane="E_1_0_0" departPos="5.10" departSpeed="0.00" departDelay="12.00" arrival="91.00" arrivalLane="E_0_3_0" arrivalPos="480.00" arrivalSpeed="14.89" duration="79.00" routeLength="967.13" waitingTime="0.00" waitingCount="0" stopTime="0.00" timeLoss="16.54" rerouteNo="0" devices="tripinfo_I13" vType="CarA" speedFactor="1.12" vaporized=""/>
    <tripinfo id="I9" depart="0.00" departLane="E_2_0_0" departPos="5.10" departSpeed="0.00" departDelay="0.00" arrival="92.00" arrivalLane="E_0_1_0" arrivalPos="483.20" arrivalSpeed="10.88" duration="92.00" routeLength="995.60" waitingTime="0.00" waitingCount="0" stopTime="0.00" timeLoss="7.71" rerouteNo="0" devices="tripinfo_I9" vType="CarA" speedFactor="0.86" vaporized=""/>
    <tripinfo id="V134721" depart="7.00" departLane="E_2_0_2" departPos="0.00" departSpeed="10.00" departDelay="0.00" arrival="94.00" arrivalLane="E_0_1_0" arrivalPos="483.20" arrivalSpeed="12.01" duration="87.00" routeLength="1000.70" waitingTime="0.00" waitingCount="0" stopTime="0.00" timeLoss="5.45" rerouteNo="0" devices="tripinfo_V134721" vType="CarA" speedFactor="0.89" vaporized=""/>
    <tripinfo id="V134720" depart="16.00" departLane="E_1_0_0" departPos="0.00" departSpeed="10.00" departDelay="9.00" arrival="96.00" arrivalLane="E_0_3_1" arrivalPos="480.00" arrivalSpeed="14.47" duration="80.00" routeLength="972.23" waitingTime="0.00" waitingCount="0" stopTime="0.00" timeLoss="12.39" rerouteNo="0" devices="tripinfo_V134720" vType="CarA" speedFactor="1.05" vaporized=""/>
    <tripinfo id="I7" depart="9.00" departLane="E_1_0_0" departPos="5.10" departSpeed="0.00" departDelay="9.00" arrival="98.00" arrivalLane="E_0_3_0" arrivalPos="480.00" arrivalSpeed="11.10" duration="89.00" routeLength="967.13" waitingTime="0.00" waitingCount="0" stopTime="0.00" timeLoss="9.65" rerouteNo="0" devices="tripinfo_I7" vType="CarA" speedFactor="0.89" vaporized=""/>
    <tripinfo id="V134719" depart="5.00" departLane="E_2_0_3" departPos="0.00" departSpeed="10.00" departDelay="0.00" arrival="98.00" arrivalLane="E_0_1_0" arrivalPos="483.20" arrivalSpeed="10.21" duration="93.00" routeLength="1000.70" waitingTime="0.00" waitingCount="0" stopTime="0.00" timeLoss="5.74" rerouteNo="0" devices="tripinfo_V134719" vType="CarA" speedFactor="0.83" vaporized=""/>
    <tripinfo id="V134732" depart="15.00" departLane="E_2_0_2" departPos="0.00" departSpeed="10.00" departDelay="0.00" arrival="98.00" arrivalLane="E_0_1_1" arrivalPos="483.20" arrivalSpeed="12.37" duration="83.00" routeLength="1000.70" waitingTime="0.00" waitingCount="0" stopTime="0.00" timeLoss="5.34" rerouteNo="0" devices="tripinfo_V134732" vType="CarA" speedFactor="0.94" vaporized=""/>
    <tripinfo id="V134723" depart="11.00" departLane="E_2_0_0" departPos="0.00" departSpeed="10.00" departDelay="3.00" arrival="100.00" arrivalLane="E_0_4_0" arrivalPos="476.80" arrivalSpeed="11.40" duration="89.00" routeLength="974.30" waitingTime="0.00" waitingCount="0" stopTime="0.00" timeLoss="6.43" rerouteNo="0" devices="tripinfo_V134723" vType="CarA" speedFactor="0.86" vaporized=""/>
    <tripinfo id="I3" depart="0.00" departLane="E_3_0_0" departPos="5.10" departSpeed="0.00" departDelay="0.00" arrival="102.00" arrivalLane="E_0_2_0" arrivalPos="480.00" arrivalSpeed="14.87" duration="102.00" routeLength="963.93" waitingTime="26.00" waitingCount="1" stopTime="0.00" timeLoss="37.29" rerouteNo="0" devices="tripinfo_I3" vType="CarA" speedFactor="1.08" vaporized=""/>
    <tripinfo id="V134717" depart="8.00" departLane="E_4_0_0" departPos="0.00" departSpeed="10.00" departDelay="4.00" arrival="103.00" arrivalLane="E_0_1_0" arrivalPos="483.20" arrivalSpeed="14.62" duration="95.00" routeLength="979.63" waitingTime="21.00" waitingCount="1" stopTime="0.00" timeLoss="29.06" rerouteNo="0" devices="tripinfo_V134717" vType="CarA" speedFactor="1.08" vaporized=""/>
    <tripinfo id="I12" depart="9.00" departLane="E_3_0_0" departPos="5.10" departSpeed="0.00" departDelay="9.00" arrival="104.00" arrivalLane="E_0_2_1" arrivalPos="480.00" arrivalSpeed="14.41" duration="95.00" routeLength="974.53" waitingTime="17.00" waitingCount="1" stopTime="0.00" timeLoss="27.14" rerouteNo="0" devices="tripinfo_I12" vType="CarA" speedFactor="1.05" vaporized=""/>
    <tripinfo id="V134727" depart="11.00" departLane="E_4_0_0" departPos="0.00" departSpeed="10.00" departDelay="1.00" arrival="106.00" arrivalLane="E_0_1_1" arrivalPos="483.20" arrivalSpeed="15.29" duration="95.00" routeLength="979.63" waitingTime="18.00" waitingCount="1" stopTime="0.00" timeLoss="31.36" rerouteNo="0" devices="tripinfo_V134727" vType="CarA" speedFactor="1.12" vaporized=""/>
    <tripinfo id="V134737" depart="20.00" departLane="E_2_0_0" departPos="0.00" departSpeed="10.00" departDelay="0.00" arrival="106.00" arrivalLane="E_0_4_0" arrivalPos="476.80" arrivalSpeed="11.27" duration="86.00" routeLength="974.30" waitingTime="0.00" waitingCount="0" stopTime="0.00" timeLoss="5.90" rerouteNo="0" devices="tripinfo_V134737" vType="CarA" speedFactor="0.89" vaporized=""/>
    <tripinfo id="V134718" depart="9.00" departLane="E_4_0_0" departPos="0.00" departSpeed="10.00" departDelay="5.00" arrival="107.00" arrivalLane="E_0_1_0" arrivalPos="483.20" arrivalSpeed="13.48" duration="98.00" routeLength="979.63" waitingTime="18.00" waitingCount="1" stopTime="0.00" timeLoss="28.71" rerouteNo="0" devices="tripinfo_V134718" vType="CarA" speedFactor="1.03" vaporized=""/>
    <tripinfo id="V134735" depart="19.00" departLane="E_2_0_4" departPos="0.00" departSpeed="10.00" departDelay="0.00" arrival="107.00" arrivalLane="E_0_3_0" arrivalPos="480.00" arrivalSpeed="13.87" duration="88.00" routeLength="997.45" waitingTime="8.00" waitingCount="1" stopTime="0.00" timeLoss="16.49" rerouteNo="0" devices="tripinfo_V134735" vType="CarA" speedFactor="1.01" vaporized=""/>
    <tripinfo id="V134756" depart="35.00" departLane="E_2_0_4" departPos="0.00" departSpeed="10.00" departDelay="0.00" arrival="107.00" arrivalLane="E_0_3_1" arrivalPos="480.00" arrivalSpeed="14.59" duration="72.00" routeLength="997.45" waitingTime="0.00" waitingCount="0" stopTime="0.00" timeLoss="5.23" rerouteNo="0" devices="tripinfo_V134756" vType="CarA" speedFactor="1.09" vaporized=""/>
    <tripinfo id="V134716" depart="17.00" departLane="E_3_0_0" departPos="0.00" departSpeed="10.00" departDelay="14.00" arrival="108.00" arrivalLane="E_0_2_1" arrivalPos="480.00" arrivalSpeed="13.09" duration="91.00" routeLength="979.63" waitingTime="9.00" waitingCount="1" stopTime="0.00" timeLoss="19.95" rerouteNo="0" devices="tripinfo_V134716" vType="CarA" speedFactor="1.01" vaporized=""/>
    <tripinfo id="V134726" depart="19.00" departLane="E_3_0_0" departPos="0.00" departSpeed="10.00" departDelay="10.00" arrival="108.00" arrivalLane="E_0_2_0" arrivalPos="480.00" arrivalSpeed="13.34" duration="89.00" routeLength="969.03" waitingTime="11.00" waitingCount="1" stopTime="0.00" timeLoss="21.24" rerouteNo="0" devices="tripinfo_V134726" vType="CarA" speedFactor="1.05" vaporized=""/>
    <tripinfo id="I1" depart="2.00" departLane="E_1_0_0" departPos="5.10" departSpeed="0.00" departDelay="2.00" arrival="109.00" arrivalLane="E_0_4_0" arrivalPos="476.80" arrivalSpeed="12.36" duration="107.00" routeLength="992.35" waitingTime="19.00" waitingCount="1" stopTime="0.00" timeLoss="30.55" rerouteNo="0" devices="tripinfo_I1" vType="CarA" speedFactor="0.94" vaporized=""/>
    <tripinfo id="I2" depart="4.00" departLane="E_1_0_0" departPos="5.10" departSpeed="0.00" departDelay="4.00" arrival="109.00" arrivalLane="E_0_4_1" arrivalPos="476.80" arrivalSpeed="13.11" duration="105.00" routeLength="992.35" waitingTime="18.00" waitingCount="1" stopTime="0.00" timeLoss="33.27" rerouteNo="0" devices="tripinfo_I2" vType="CarA" speedFactor="1.01" vaporized=""/>
    <tripinfo id="V134729" depart="11.00" departLane="E_2_0_4" departPos="0.00" departSpeed="10.00" departDelay="0.00" arrival="110.00" arrivalLane="E_0_3_0" arrivalPos="480.00" arrivalSpeed="12.32" duration="99.00" routeLength="1005.27" waitingTime="13.00" waitingCount="1" stopTime="0.00" timeLoss="20.84" rerouteNo="0" devices="tripinfo_V134729" vType="CarA" speedFactor="0.93" vaporized=""/>
    <tripinfo id="I15" depart="12.00" departLane="E_3_0_0" departPos="5.10" departSpeed="0.00" departDelay="12.00" arrival="111.00" arrivalLane="E_0_2_0" arrivalPos="480.00" arrivalSpeed="12.59" duration="99.00" routeLength="963.93" waitingTime="11.00" waitingCount="1" stopTime="0.00" timeLoss="22.75" rerouteNo="0" devices="tripinfo_I15" vType="CarA" speedFactor="0.93" vaporized=""/>
    <tripinfo id="V134736" depart="19.00" departLane="E_3_0_1" departPos="0.00" departSpeed="10.00" departDelay="0.00" arrival="111.00" arrivalLane="E_0_2_1" arrivalPos="480.00" arrivalSpeed="13.45" duration="92.00" routeLength="979.63" waitingTime="7.00" waitingCount="1" stopTime="0.00" timeLoss="18.38" rerouteNo="0" devices="tripinfo_V134736" vType="CarA" speedFactor="0.97" vaporized=""/>
    <tripinfo id="V134750" depart="27.00" departLane="E_2_0_5" departPos="0.00" departSpeed="10.00" departDelay="0.00" arrival="111.00" arrivalLane="E_0_3_1" arrivalPos="480.00" arrivalSpeed="12.50" duration="84.00" routeLength="1005.27" waitingTime="0.00" waitingCount="0" stopTime="0.00" timeLoss="9.13" rerouteNo="0" devices="tripinfo_V134750" vType="CarA" speedFactor="0.97" vaporized=""/>
    <tripinfo id="V134745" depart="24.00" departLane="E_4_0_0" departPos="0.00" departSpeed="10.00" departDelay="1.00" arrival="114.00" arrivalLane="E_0_1_1" arrivalPos="483.20" arrivalSpeed="15.58" duration="90.00" routeLength="979.63" waitingTime="3.00" waitingCount="1" stopTime="0.00" timeLoss="27.60" rerouteNo="0" devices="tripinfo_V134745" vType="CarA" speedFactor="1.15" vaporized=""/>
    <tripinfo id="V134731" depart="13.00" departLane="E_4_0_0" departPos="0.00" departSpeed="10.00" departDelay="0.00" arrival="115.00" arrivalLane="E_0_1_0" arrivalPos="483.20" arrivalSpeed="11.66" duration="102.00" routeLength="979.63" waitingTime="15.00" waitingCount="1" stopTime="0.00" timeLoss="25.88" rerouteNo="0" devices="tripinfo_V134731" vType="CarA" speedFactor="0.94" vaporized=""/>
    <tripinfo id="V134740" depart="21.00" departLane="E_3_0_1" departPos="0.00" departSpeed="10.00" departDelay="0.00" arrival="115.00" arrivalLane="E_0_2_0" arrivalPos="480.00" arrivalSpeed="12.58" duration="94.00" routeLength="979.63" waitingTime="7.00" waitingCount="1" stopTime="0.00" timeLoss="16.32" rerouteNo="0" devices="tripinfo_V134740" vType="CarA" speedFactor="0.92" vaporized=""/>
    <tripinfo id="V134775" depart="51.00" departLane="E_2_0_4" departPos="0.00" departSpeed="10.00" departDelay="0.00" arrival="119.00" arrivalLane="E_0_3_0" arrivalPos="480.00" arrivalSpeed="14.51" duration="68.00" routeLength="1005.27" waitingTime="0.00" waitingCount="0" stopTime="0.00" timeLoss="3.27" rerouteNo="0" devices="tripinfo_V134775" vType="CarA" speedFactor="1.12" vaporized=""/>
    <tripinfo id="V134738" depart="20.00" departLane="E_4_0_0" departPos="0.00" departSpeed="10.00" departDelay="0.00" arrival="123.00" arrivalLane="E_0_1_0" arrivalPos="483.20" arrivalSpeed="10.12" duration="103.00" routeLength="979.63" waitingTime="4.00" waitingCount="1" stopTime="0.00" timeLoss="16.66" rerouteNo="0" devices="tripinfo_V134738" vType="CarA" speedFactor="0.83" vaporized=""/>
    <tripinfo id="V134739" depart="22.00" departLane="E_4_0_0" departPos="0.00" departSpeed="10.00" departDelay="2.00" arrival="123.00" arrivalLane="E_0_1_1" arrivalPos="483.20" arrivalSpeed="11.13" duration="101.00" routeLength="979.63" waitingTime="3.00" waitingCount="1" stopTime="0.00" timeLoss="18.98" rerouteNo="0" devices="tripinfo_V134739" vType="CarA" speedFactor="0.87" vaporized=""/>
    <tripinfo id="V134767" depart="43.00" departLane="E_4_0_0" departPos="0.00" departSpeed="10.00" departDelay="0.00" arrival="124.00" arrivalLane="E_0_1_2" arrivalPos="483.20" arrivalSpeed="14.48" duration="81.00" routeLength="979.63" waitingTime="0.00" waitingCount="0" stopTime="0.00" timeLoss="15.59" rerouteNo="0" devices="tripinfo_V134767" vType="CarA" speedFactor="1.10" vaporized=""/>
    <tripinfo id="V134755" depart="31.00" departLane="E_4_0_0" departPos="0.00" departSpeed="10.00" departDelay="0.00" arrival="125.00" arrivalLane="E_0_1_0" arrivalPos="483.20" arrivalSpeed="11.87" duration="94.00" routeLength="979.63" waitingTime="1.00" waitingCount="1" stopTime="0.00" timeLoss="19.21" rerouteNo="0" devices="tripinfo_V134755" vType="CarA" speedFactor="0.96" vaporized=""/>
    <tripinfo id="V134761" depart="38.00" departLane="E_4_0_0" departPos="0.00" departSpeed="10.00" departDelay="0.00" arrival="126.00" arrivalLane="E_0_1_0" arrivalPos="483.20" arrivalSpeed="12.26" duration="88.00" routeLength="979.63" waitingTime="0.00" waitingCount="0" stopTime="0.00" timeLoss="9.03" rerouteNo="0" devices="tripinfo_V134761" vType="CarA" speedFactor="0.90" vaporized=""/>
    <tripinfo id="V134771" depart="47.00" departLane="E_4_0_0" departPos="0.00" departSpeed="10.00" departDelay="0.00" arrival="126.00" arrivalLane="E_0_1_1" arrivalPos="483.20" arrivalSpeed="15.86" duration="79.00" routeLength="979.63" waitingTime="0.00" waitingCount="0" stopTime="0.00" timeLoss="15.97" rerouteNo="0" devices="tripinfo_V134771" vType="CarA" speedFactor="1.14" vaporized=""/>
    <tripinfo id="V134769" depart="46.00" departLane="E_4_0_0" departPos="0.00" departSpeed="10.00" departDelay="0.00" arrival="130.00" arrivalLane="E_0_1_1" arrivalPos="483.20" arrivalSpeed="13.36" duration="84.00" routeLength="979.63" waitingTime="0.00" waitingCount="0" stopTime="0.00" timeLoss="11.86" rerouteNo="0" devices="tripinfo_V134769" vType="CarA" speedFactor="1.00" vaporized=""/>
    <tripinfo id="V134763" depart="41.00" departLane="E_4_0_0" departPos="0.00" departSpeed="10.00" departDelay="0.00" arrival="131.00" arrivalLane="E_0_1_0" arrivalPos="483.20" arrivalSpeed="11.39" duration="90.00" routeLength="979.63" waitingTime="0.00" waitingCount="0" stopTime="0.00" timeLoss="6.09" rerouteNo="0" devices="tripinfo_V134763" vType="CarA" speedFactor="0.85" vaporized=""/>
    <tripinfo id="V134778" depart="52.00" departLane="E_3_0_0" departPos="0.00" departSpeed="10.00" departDelay="0.00" arrival="133.00" arrivalLane="E_0_2_0" arrivalPos="480.00" arrivalSpeed="11.65" duration="81.00" routeLength="969.03" waitingTime="0.00" waitingCount="0" stopTime="0.00" timeLoss="5.69" rerouteNo="0" devices="tripinfo_V134778" vType="CarA" speedFactor="0.94" vaporized=""/>
    <tripinfo id="V134773" depart="49.00" departLane="E_4_0_0" departPos="0.00" departSpeed="10.00" departDelay="1.00" arrival="134.00" arrivalLane="E_0_1_0" arrivalPos="483.20" arrivalSpeed="13.33" duration="85.00" routeLength="979.63" waitingTime="0.00" waitingCount="0" stopTime="0.00" timeLoss="11.03" rerouteNo="0" devices="tripinfo_V134773" vType="CarA" speedFactor="0.97" vaporized=""/>
    <tripinfo id="V134752" depart="31.00" departLane="E_1_0_0" departPos="0.00" departSpeed="10.00" departDelay="0.00" arrival="135.00" arrivalLane="E_0_3_1" arrivalPos="480.00" arrivalSpeed="15.24" duration="104.00" routeLength="972.23" waitingTime="32.00" waitingCount="1" stopTime="0.00" timeLoss="39.33" rerouteNo="0" devices="tripinfo_V134752" vType="CarA" speedFactor="1.10" vaporized=""/>
    <tripinfo id="V134781" depart="54.00" departLane="E_2_0_4" departPos="0.00" departSpeed="10.00" departDelay="0.00" arrival="138.00" arrivalLane="E_0_3_0" arrivalPos="480.00" arrivalSpeed="11.78" duration="84.00" routeLength="1005.27" waitingTime="0.00" waitingCount="0" stopTime="0.00" timeLoss="4.83" rerouteNo="0" devices="tripinfo_V134781" vType="CarA" speedFactor="0.91" vaporized=""/>
    <tripinfo id="V134724" depart="8.00" departLane="E_3_0_4" departPos="0.00" departSpeed="10.00" departDelay="0.00" arrival="140.00" arrivalLane="E_0_1_0" arrivalPos="483.20" arrivalSpeed="14.62" duration="132.00" routeLength="1000.94" waitingTime="54.00" waitingCount="1" stopTime="0.00" timeLoss="64.97" rerouteNo="0" devices="tripinfo_V134724" vType="CarA" speedFactor="1.09" vaporized=""/>
    <tripinfo id="V134746" depart="25.00" departLane="E_2_0_0" departPos="0.00" departSpeed="10.00" departDelay="0.00" arrival="141.00" arrivalLane="E_0_4_1" arrivalPos="476.80" arrivalSpeed="12.56" duration="116.00" routeLength="974.30" waitingTime="31.00" waitingCount="1" stopTime="0.00" timeLoss="44.90" rerouteNo="0" devices="tripinfo_V134746" vType="CarA" speedFactor="1.01" vaporized=""/>
    <tripinfo id="V134758" depart="36.00" departLane="E_1_0_0" departPos="0.00" departSpeed="10.00" departDelay="0.00" arrival="141.00" arrivalLane="E_0_3_1" arrivalPos="480.00" arrivalSpeed="13.88" duration="105.00" routeLength="972.23" waitingTime="22.00" waitingCount="1" stopTime="0.00" timeLoss="36.68" rerouteNo="0" devices="tripinfo_V134758" vType="CarA" speedFactor="1.04" vaporized=""/>
    <tripinfo id="V134743" depart="23.00" departLane="E_2_0_0" departPos="0.00" departSpeed="10.00" departDelay="0.00" arrival="142.00" arrivalLane="E_0_4_0" arrivalPos="476.80" arrivalSpeed="12.17" duration="119.00" routeLength="974.30" waitingTime="31.00" waitingCount="1" stopTime="0.00" timeLoss="42.28" rerouteNo="0" devices="tripinfo_V134743" vType="CarA" speedFactor="0.93" vaporized=""/>
    <tripinfo id="V134749" depart="27.00" departLane="E_2_0_0" departPos="0.00" departSpeed="10.00" departDelay="0.00" arrival="142.00" arrivalLane="E_0_4_1" arrivalPos="476.80" arrivalSpeed="12.73" duration="115.00" routeLength="974.30" waitingTime="30.00" waitingCount="1" stopTime="0.00" timeLoss="45.44" rerouteNo="0" devices="tripinfo_V134749" vType="CarA" speedFactor="1.02" vaporized=""/>
    <tripinfo id="I17" depart="2.00" departLane="E_4_0_0" departPos="5.10" departSpeed="0.00" departDelay="2.00" arrival="144.00" arrivalLane="E_0_2_0" arrivalPos="480.00" arrivalSpeed="12.28" duration="142.00" routeLength="1000.13" waitingTime="54.00" waitingCount="1" stopTime="0.00" timeLoss="64.90" rerouteNo="0" devices="tripinfo_I17" vType="CarA" speedFactor="0.94" vaporized=""/>
    <tripinfo id="V134715" depart="2.00" departLane="E_3_0_4" departPos="0.00" departSpeed="10.00" departDelay="0.00" arrival="144.00" arrivalLane="E_0_1_0" arrivalPos="483.20" arrivalSpeed="11.67" duration="142.00" routeLength="1000.94" waitingTime="53.00" waitingCount="1" stopTime="0.00" timeLoss="64.28" rerouteNo="0" devices="tripinfo_V134715" vType="CarA" speedFactor="0.94" vaporized=""/>
    <tripinfo id="V134754" depart="31.00" departLane="E_2_0_0" departPos="0.00" departSpeed="10.00" departDelay="0.00" arrival="144.00" arrivalLane="E_0_4_0" arrivalPos="476.80" arrivalSpeed="13.24" duration="113.00" routeLength="974.30" waitingTime="29.00" waitingCount="1" stopTime="0.00" timeLoss="43.37" rerouteNo="0" devices="tripinfo_V134754" vType="CarA" speedFactor="1.03" vaporized=""/>
    <tripinfo id="V134759" depart="37.00" departLane="E_2_0_0" departPos="0.00" departSpeed="10.00" departDelay="0.00" arrival="144.00" arrivalLane="E_0_4_1" arrivalPos="476.80" arrivalSpeed="13.79" duration="107.00" routeLength="974.30" waitingTime="29.00" waitingCount="1" stopTime="0.00" timeLoss="41.15" rerouteNo="0" devices="tripinfo_V134759" vType="CarA" speedFactor="1.09" vaporized=""/>
    <tripinfo id="V134725" depart="8.00" departLane="E_4_0_2" departPos="0.00" departSpeed="10.00" departDelay="0.00" arrival="145.00" arrivalLane="E_0_2_1" arrivalPos="480.00" arrivalSpeed="14.22" duration="137.00" routeLength="1005.23" waitingTime="51.00" waitingCount="1" stopTime="0.00" timeLoss="66.09" rerouteNo="0" devices="tripinfo_V134725" vType="CarA" speedFactor="1.03" vaporized=""/>
    <tripinfo id="V134753" depart="32.00" departLane="E_1_0_0" departPos="0.00" departSpeed="10.00" departDelay="1.00" arrival="145.00" arrivalLane="E_0_3_0" arrivalPos="480.00" arrivalSpeed="12.01" duration="113.00" routeLength="972.23" waitingTime="23.00" waitingCount="1" stopTime="0.00" timeLoss="34.12" rerouteNo="0" devices="tripinfo_V134753" vType="CarA" speedFactor="0.90" vaporized=""/>
    <tripinfo id="I18" depart="4.00" departLane="E_4_0_0" departPos="5.10" departSpeed="0.00" departDelay="4.00" arrival="146.00" arrivalLane="E_0_2_0" arrivalPos="480.00" arrivalSpeed="12.50" duration="142.00" routeLength="1000.13" waitingTime="53.00" waitingCount="1" stopTime="0.00" timeLoss="64.64" rerouteNo="0" devices="tripinfo_I18" vType="CarA" speedFactor="0.94" vaporized=""/>
    <tripinfo id="V134722" depart="7.00" departLane="E_4_0_2" departPos="0.00" departSpeed="10.00" departDelay="0.00" arrival="148.00" arrivalLane="E_0_2_0" arrivalPos="480.00" arrivalSpeed="11.65" duration="141.00" routeLength="1005.23" waitingTime="51.00" waitingCount="1" stopTime="0.00" timeLoss="63.33" rerouteNo="0" devices="tripinfo_V134722" vType="CarA" speedFactor="0.94" vaporized=""/>
    <tripinfo id="V134747" depart="25.00" departLane="E_4_0_2" departPos="0.00" departSpeed="10.00" departDelay="0.00" arrival="148.00" arrivalLane="E_0_2_2" arrivalPos="480.00" arrivalSpeed="14.86" duration="123.00" routeLength="1005.23" waitingTime="45.00" waitingCount="1" stopTime="0.00" timeLoss="60.42" rerouteNo="0" devices="tripinfo_V134747" vType="CarA" speedFactor="1.17" vaporized=""/>
    <tripinfo id="V134760" depart="38.00" departLane="E_2_0_0" departPos="0.00" departSpeed="10.00" departDelay="1.00" arrival="148.00" arrivalLane="E_0_4_0" arrivalPos="476.80" arrivalSpeed="13.54" duration="110.00" routeLength="974.30" waitingTime="28.00" waitingCount="1" stopTime="0.00" timeLoss="38.62" rerouteNo="0" devices="tripinfo_V134760" vType="CarA" speedFactor="1.00" vaporized=""/>
    <tripinfo id="V134788" depart="61.00" departLane="E_1_0_0" departPos="0.00" departSpeed="10.00" departDelay="0.00" arrival="148.00" arrivalLane="E_0_3_0" arrivalPos="480.00" arrivalSpeed="12.64" duration="87.00" routeLength="972.23" waitingTime="0.00" waitingCount="0" stopTime="0.00" timeLoss="11.97" rerouteNo="0" devices="tripinfo_V134788" vType="CarA" speedFactor="0.96" vaporized=""/>
    <tripinfo id="V134789" depart="63.00" departLane="E_1_0_0" departPos="0.00" departSpeed="10.00" departDelay="2.00" arrival="148.00" arrivalLane="E_0_3_1" arrivalPos="480.00" arrivalSpeed="12.24" duration="85.00" routeLength="972.23" waitingTime="0.00" waitingCount="0" stopTime="0.00" timeLoss="12.55" rerouteNo="0" devices="tripinfo_V134789" vType="CarA" speedFactor="0.98" vaporized=""/>
    <tripinfo id="V134734" depart="18.00" departLane="E_4_0_2" departPos="0.00" departSpeed="10.00" departDelay="0.00" arrival="149.00" arrivalLane="E_0_2_1" arrivalPos="480.00" arrivalSpeed="13.02" duration="131.00" routeLength="1005.23" waitingTime="46.00" waitingCount="1" stopTime="0.00" timeLoss="59.69" rerouteNo="0" devices="tripinfo_V134734" vType="CarA" speedFactor="1.02" vaporized=""/>
    <tripinfo id="V134766" depart="42.00" departLane="E_3_0_4" departPos="0.00" departSpeed="10.00" departDelay="0.00" arrival="149.00" arrivalLane="E_0_1_2" arrivalPos="483.20" arrivalSpeed="13.71" duration="107.00" routeLength="1000.94" waitingTime="26.00" waitingCount="1" stopTime="0.00" timeLoss="35.44" rerouteNo="0" devices="tripinfo_V134766" vType="CarA" speedFactor="1.02" vaporized=""/>
    <tripinfo id="V134794" depart="64.00" departLane="E_1_0_0" departPos="0.00" departSpeed="10.00" departDelay="0.00" arrival="149.00" arrivalLane="E_0_3_0" arrivalPos="480.00" arrivalSpeed="13.01" duration="85.00" routeLength="972.23" waitingTime="0.00" waitingCount="0" stopTime="0.00" timeLoss="16.22" rerouteNo="0" devices="tripinfo_V134794" vType="CarA" speedFactor="1.03" vaporized=""/>
    <tripinfo id="I16" depart="14.00" departLane="E_3_0_0" departPos="5.10" departSpeed="0.00" departDelay="14.00" arrival="151.00" arrivalLane="E_0_1_1" arrivalPos="483.20" arrivalSpeed="11.51" duration="137.00" routeLength="995.84" waitingTime="43.00" waitingCount="1" stopTime="0.00" timeLoss="55.04" rerouteNo="0" devices="tripinfo_I16" vType="CarA" speedFactor="0.88" vaporized=""/>
    <tripinfo id="V134796" depart="66.00" departLane="E_1_0_0" departPos="0.00" departSpeed="10.00" departDelay="1.00" arrival="151.00" arrivalLane="E_0_3_0" arrivalPos="480.00" arrivalSpeed="13.12" duration="85.00" routeLength="972.23" waitingTime="0.00" waitingCount="0" stopTime="0.00" timeLoss="15.26" rerouteNo="0" devices="tripinfo_V134796" vType="CarA" speedFactor="1.02" vaporized=""/>
    <tripinfo id="V134757" depart="35.00" departLane="E_4_0_2" departPos="0.00" departSpeed="10.00" departDelay="0.00" arrival="152.00" arrivalLane="E_0_2_1" arrivalPos="480.00" arrivalSpeed="12.92" duration="117.00" routeLength="1005.23" waitingTime="34.00" waitingCount="1" stopTime="0.00" timeLoss="46.97" rerouteNo="0" devices="tripinfo_V134757" vType="CarA" speedFactor="1.04" vaporized=""/>
    <tripinfo id="V134776" depart="52.00" departLane="E_2_0_0" departPos="0.00" departSpeed="10.00" departDelay="0.00" arrival="152.00" arrivalLane="E_0_4_0" arrivalPos="476.80" arrivalSpeed="14.01" duration="100.00" routeLength="974.30" waitingTime="18.00" waitingCount="1" stopTime="0.00" timeLoss="30.03" rerouteNo="0" devices="tripinfo_V134776" vType="CarA" speedFactor="1.02" vaporized=""/>
    <tripinfo id="V134803" depart="69.00" departLane="E_3_0_4" departPos="0.00" departSpeed="10.00" departDelay="0.00" arrival="152.00" arrivalLane="E_0_1_2" arrivalPos="483.20" arrivalSpeed="13.57" duration="83.00" routeLength="1000.94" waitingTime="1.00" waitingCount="1" stopTime="0.00" timeLoss="11.67" rerouteNo="0" devices="tripinfo_V134803" vType="CarA" speedFactor="1.02" vaporized=""/>
    <tripinfo id="V134812" depart="75.00" departLane="E_1_0_0" departPos="0.00" departSpeed="10.00" departDelay="0.00" arrival="152.00" arrivalLane="E_0_3_1" arrivalPos="480.00" arrivalSpeed="14.41" duration="77.00" routeLength="972.23" waitingTime="0.00" waitingCount="0" stopTime="0.00" timeLoss="13.76" rerouteNo="0" devices="tripinfo_V134812" vType="CarA" speedFactor="1.12" vaporized=""/>