<?xml version="1.0" encoding="UTF-8"?>

<!-- generated on 2023-05-21 01:06:18 by Eclipse SUMO sumo Version 1.16.0
<configuration xmlns:xsi="http://www.w3.org/2001/XMLSchema-instance" xsi:noNamespaceSchemaLocation="http://sumo.dlr.de/xsd/sumoConfiguration.xsd">

    <input>
        <net-file value="creators/sumo_files/app.net.xml"/>
        <route-files value="creators/sumo_files/app.rou.xml"/>
        <additional-files value="creators/sumo_files/app.program.xml"/>
    </input>

    <output>
        <tripinfo-output value="app.tripinfo.xml"/>
    </output>

    <time>
        <begin value="0"/>
        <end value="54900"/>
    </time>

    <processing>
        <time-to-teleport value="-1"/>
        <waiting-time-memory value="1000"/>
    </processing>

    <report>
        <verbose value="true"/>
        <no-step-log value="true"/>
    </report>

    <traci_server>
        <remote-port value="63817"/>
    </traci_server>

    <gui_only>
        <quit-on-end value="true"/>
        <start value="true"/>
    </gui_only>

</configuration>
-->

<tripinfos xmlns:xsi="http://www.w3.org/2001/XMLSchema-instance" xsi:noNamespaceSchemaLocation="http://sumo.dlr.de/xsd/tripinfo_file.xsd">
    <tripinfo id="I19" depart="4.00" departLane="E_2_0_0" departPos="5.10" departSpeed="0.00" departDelay="4.00" arrival="74.00" arrivalLane="E_0_4_1" arrivalPos="483.20" arrivalSpeed="15.66" duration="70.00" routeLength="978.15" waitingTime="0.00" waitingCount="0" stopTime="0.00" timeLoss="7.93" rerouteNo="0" devices="tripinfo_I19" vType="CarA" speedFactor="1.16" vaporized=""/>
    <tripinfo id="V57191" depart="1.00" departLane="E_2_0_1" departPos="0.00" departSpeed="10.00" departDelay="0.00" arrival="74.00" arrivalLane="E_0_4_0" arrivalPos="483.20" arrivalSpeed="14.63" duration="73.00" routeLength="975.43" waitingTime="0.00" waitingCount="0" stopTime="0.00" timeLoss="5.38" rerouteNo="0" devices="tripinfo_V57191" vType="CarA" speedFactor="1.06" vaporized=""/>
    <tripinfo id="I4" depart="0.00" departLane="E_1_0_0" departPos="5.10" departSpeed="0.00" departDelay="0.00" arrival="76.00" arrivalLane="E_0_3_0" arrivalPos="480.00" arrivalSpeed="13.53" duration="76.00" routeLength="973.03" waitingTime="0.00" waitingCount="0" stopTime="0.00" timeLoss="7.26" rerouteNo="0" devices="tripinfo_I4" vType="CarA" speedFactor="1.03" vaporized=""/>
    <tripinfo id="I13" depart="12.00" departLane="E_1_0_0" departPos="5.10" departSpeed="0.00" departDelay="12.00" arrival="83.00" arrivalLane="E_0_2_2" arrivalPos="483.20" arrivalSpeed="14.75" duration="71.00" routeLength="995.17" waitingTime="0.00" waitingCount="0" stopTime="0.00" timeLoss="6.57" rerouteNo="0" devices="tripinfo_I13" vType="CarA" speedFactor="1.12" vaporized=""/>
    <tripinfo id="I18" depart="2.00" departLane="E_2_0_0" departPos="5.10" departSpeed="0.00" departDelay="2.00" arrival="87.00" arrivalLane="E_0_4_0" arrivalPos="483.20" arrivalSpeed="12.58" duration="85.00" routeLength="970.33" waitingTime="0.00" waitingCount="0" stopTime="0.00" timeLoss="9.38" rerouteNo="0" devices="tripinfo_I18" vType="CarA" speedFactor="0.94" vaporized=""/>
    <tripinfo id="I8" depart="7.00" departLane="E_1_0_0" departPos="5.10" departSpeed="0.00" departDelay="7.00" arrival="91.00" arrivalLane="E_0_3_0" arrivalPos="480.00" arrivalSpeed="12.49" duration="84.00" routeLength="973.03" waitingTime="0.00" waitingCount="0" stopTime="0.00" timeLoss="8.06" rerouteNo="0" devices="tripinfo_I8" vType="CarA" speedFactor="0.94" vaporized=""/>
    <tripinfo id="I14" depart="14.00" departLane="E_1_0_0" departPos="5.10" departSpeed="0.00" departDelay="14.00" arrival="94.00" arrivalLane="E_0_2_1" arrivalPos="483.20" arrivalSpeed="12.86" duration="80.00" routeLength="995.17" waitingTime="0.00" waitingCount="0" stopTime="0.00" timeLoss="7.08" rerouteNo="0" devices="tripinfo_I14" vType="CarA" speedFactor="0.99" vaporized=""/>
    <tripinfo id="V57206" depart="11.00" departLane="E_2_0_1" departPos="0.00" departSpeed="10.00" departDelay="0.00" arrival="94.00" arrivalLane="E_0_4_0" arrivalPos="483.20" arrivalSpeed="11.92" duration="83.00" routeLength="975.43" waitingTime="0.00" waitingCount="0" stopTime="0.00" timeLoss="6.08" rerouteNo="0" devices="tripinfo_V57206" vType="CarA" speedFactor="0.93" vaporized=""/>
    <tripinfo id="I5" depart="2.00" departLane="E_1_0_0" departPos="5.10" departSpeed="0.00" departDelay="2.00" arrival="97.00" arrivalLane="E_0_2_0" arrivalPos="483.20" arrivalSpeed="11.15" duration="95.00" routeLength="995.17" waitingTime="0.00" waitingCount="0" stopTime="0.00" timeLoss="7.90" rerouteNo="0" devices="tripinfo_I5" vType="CarA" speedFactor="0.83" vaporized=""/>
    <tripinfo id="V57200" depart="10.00" departLane="E_2_0_0" departPos="0.00" departSpeed="10.00" departDelay="0.00" arrival="100.00" arrivalLane="E_0_4_0" arrivalPos="483.20" arrivalSpeed="11.21" duration="90.00" routeLength="983.25" waitingTime="0.00" waitingCount="0" stopTime="0.00" timeLoss="6.57" rerouteNo="0" devices="tripinfo_V57200" vType="CarA" speedFactor="0.86" vaporized=""/>
    <tripinfo id="I9" depart="9.00" departLane="E_1_0_0" departPos="5.10" departSpeed="0.00" departDelay="9.00" arrival="101.00" arrivalLane="E_0_2_0" arrivalPos="483.20" arrivalSpeed="10.72" duration="92.00" routeLength="995.17" waitingTime="0.00" waitingCount="0" stopTime="0.00" timeLoss="8.11" rerouteNo="0" devices="tripinfo_I9" vType="CarA" speedFactor="0.86" vaporized=""/>
    <tripinfo id="V57204" depart="10.00" departLane="E_4_0_0" departPos="0.00" departSpeed="10.00" departDelay="0.00" arrival="102.00" arrivalLane="E_0_1_0" arrivalPos="486.40" arrivalSpeed="14.78" duration="92.00" routeLength="987.10" waitingTime="19.00" waitingCount="1" stopTime="0.00" timeLoss="27.61" rerouteNo="0" devices="tripinfo_V57204" vType="CarA" speedFactor="1.12" vaporized=""/>
    <tripinfo id="I0" depart="0.00" departLane="E_3_0_0" departPos="5.10" departSpeed="0.00" departDelay="0.00" arrival="104.00" arrivalLane="E_0_2_0" arrivalPos="483.20" arrivalSpeed="14.46" duration="104.00" routeLength="969.83" waitingTime="25.00" waitingCount="1" stopTime="0.00" timeLoss="36.76" rerouteNo="0" devices="tripinfo_I0" vType="CarA" speedFactor="1.06" vaporized=""/>
    <tripinfo id="V57199" depart="21.00" departLane="E_1_0_0" departPos="0.00" departSpeed="10.00" departDelay="11.00" arrival="104.00" arrivalLane="E_0_3_0" arrivalPos="480.00" arrivalSpeed="12.56" duration="83.00" routeLength="978.13" waitingTime="0.00" waitingCount="0" stopTime="0.00" timeLoss="6.13" rerouteNo="0" devices="tripinfo_V57199" vType="CarA" speedFactor="0.94" vaporized=""/>
    <tripinfo id="I6" depart="4.00" departLane="E_1_0_0" departPos="5.10" departSpeed="0.00" departDelay="4.00" arrival="106.00" arrivalLane="E_0_4_0" arrivalPos="483.20" arrivalSpeed="13.23" duration="102.00" routeLength="999.48" waitingTime="21.00" waitingCount="1" stopTime="0.00" timeLoss="32.48" rerouteNo="0" devices="tripinfo_I6" vType="CarA" speedFactor="1.05" vaporized=""/>
    <tripinfo id="I10" depart="11.00" departLane="E_3_0_0" departPos="5.10" departSpeed="0.00" departDelay="11.00" arrival="107.00" arrivalLane="E_0_2_0" arrivalPos="483.20" arrivalSpeed="13.98" duration="96.00" routeLength="969.83" waitingTime="13.00" waitingCount="2" stopTime="0.00" timeLoss="31.09" rerouteNo="0" devices="tripinfo_I10" vType="CarA" speedFactor="1.09" vaporized=""/>
    <tripinfo id="I11" depart="0.00" departLane="E_2_0_0" departPos="5.10" departSpeed="0.00" departDelay="0.00" arrival="107.00" arrivalLane="E_0_3_0" arrivalPos="480.00" arrivalSpeed="13.77" duration="107.00" routeLength="995.55" waitingTime="24.00" waitingCount="1" stopTime="0.00" timeLoss="36.49" rerouteNo="0" devices="tripinfo_I11" vType="CarA" speedFactor="1.03" vaporized=""/>
    <tripinfo id="V57201" depart="10.00" departLane="E_2_0_3" departPos="0.00" departSpeed="10.00" departDelay="0.00" arrival="107.00" arrivalLane="E_0_3_1" arrivalPos="480.00" arrivalSpeed="13.73" duration="97.00" routeLength="1000.65" waitingTime="20.00" waitingCount="1" stopTime="0.00" timeLoss="29.90" rerouteNo="0" devices="tripinfo_V57201" vType="CarA" speedFactor="1.09" vaporized=""/>
    <tripinfo id="V57202" depart="11.00" departLane="E_2_0_3" departPos="0.00" departSpeed="10.00" departDelay="1.00" arrival="110.00" arrivalLane="E_0_3_0" arrivalPos="480.00" arrivalSpeed="13.14" duration="99.00" routeLength="1000.65" waitingTime="17.00" waitingCount="1" stopTime="0.00" timeLoss="28.29" rerouteNo="0" devices="tripinfo_V57202" vType="CarA" speedFactor="1.03" vaporized=""/>
    <tripinfo id="I12" depart="14.00" departLane="E_3_0_0" departPos="5.10" departSpeed="0.00" departDelay="14.00" arrival="111.00" arrivalLane="E_0_2_1" arrivalPos="483.20" arrivalSpeed="13.21" duration="97.00" routeLength="969.83" waitingTime="12.00" waitingCount="1" stopTime="0.00" timeLoss="28.93" rerouteNo="0" devices="tripinfo_I12" vType="CarA" speedFactor="1.05" vaporized=""/>
    <tripinfo id="V57209" depart="12.00" departLane="E_1_0_3" departPos="0.00" departSpeed="10.00" departDelay="0.00" arrival="112.00" arrivalLane="E_0_4_0" arrivalPos="483.20" arrivalSpeed="12.75" duration="100.00" routeLength="1004.58" waitingTime="11.00" waitingCount="1" stopTime="0.00" timeLoss="21.81" rerouteNo="0" devices="tripinfo_V57209" vType="CarA" speedFactor="0.94" vaporized=""/>
    <tripinfo id="I7" depart="9.00" departLane="E_3_0_0" departPos="5.10" departSpeed="0.00" departDelay="9.00" arrival="113.00" arrivalLane="E_0_2_0" arrivalPos="483.20" arrivalSpeed="11.57" duration="104.00" routeLength="969.83" waitingTime="13.00" waitingCount="1" stopTime="0.00" timeLoss="24.30" rerouteNo="0" devices="tripinfo_I7" vType="CarA" speedFactor="0.89" vaporized=""/>
    <tripinfo id="V57195" depart="20.00" departLane="E_3_0_0" departPos="0.00" departSpeed="10.00" departDelay="12.00" arrival="113.00" arrivalLane="E_0_2_1" arrivalPos="483.20" arrivalSpeed="14.30" duration="93.00" routeLength="974.93" waitingTime="11.00" waitingCount="1" stopTime="0.00" timeLoss="23.99" rerouteNo="0" devices="tripinfo_V57195" vType="CarA" speedFactor="1.03" vaporized=""/>
    <tripinfo id="V57207" depart="12.00" departLane="E_4_0_0" departPos="0.00" departSpeed="10.00" departDelay="1.00" arrival="114.00" arrivalLane="E_0_1_0" arrivalPos="486.40" arrivalSpeed="10.71" duration="102.00" routeLength="987.10" waitingTime="9.00" waitingCount="1" stopTime="0.00" timeLoss="20.23" rerouteNo="0" devices="tripinfo_V57207" vType="CarA" speedFactor="0.88" vaporized=""/>
    <tripinfo id="V57218" depart="21.00" departLane="E_1_0_3" departPos="0.00" departSpeed="10.00" departDelay="0.00" arrival="115.00" arrivalLane="E_0_4_1" arrivalPos="483.20" arrivalSpeed="12.86" duration="94.00" routeLength="1004.58" waitingTime="4.00" waitingCount="1" stopTime="0.00" timeLoss="17.45" rerouteNo="0" devices="tripinfo_V57218" vType="CarA" speedFactor="0.95" vaporized=""/>
    <tripinfo id="V57233" depart="39.00" departLane="E_1_0_3" departPos="0.00" departSpeed="10.00" departDelay="0.00" arrival="115.00" arrivalLane="E_0_4_2" arrivalPos="483.20" arrivalSpeed="14.40" duration="76.00" routeLength="1004.58" waitingTime="0.00" waitingCount="0" stopTime="0.00" timeLoss="8.68" rerouteNo="0" devices="tripinfo_V57233" vType="CarA" speedFactor="1.09" vaporized=""/>
    <tripinfo id="V57213" depart="15.00" departLane="E_4_0_0" departPos="0.00" departSpeed="10.00" departDelay="0.00" arrival="116.00" arrivalLane="E_0_1_0" arrivalPos="486.40" arrivalSpeed="12.44" duration="101.00" routeLength="987.10" waitingTime="9.00" waitingCount="1" stopTime="0.00" timeLoss="26.74" rerouteNo="0" devices="tripinfo_V57213" vType="CarA" speedFactor="0.97" vaporized=""/>
    <tripinfo id="V57244" depart="45.00" departLane="E_2_0_3" departPos="0.00" departSpeed="10.00" departDelay="0.00" arrival="116.00" arrivalLane="E_0_3_1" arrivalPos="480.00" arrivalSpeed="14.60" duration="71.00" routeLength="1000.65" waitingTime="0.00" waitingCount="0" stopTime="0.00" timeLoss="4.22" rerouteNo="0" devices="tripinfo_V57244" vType="CarA" speedFactor="1.10" vaporized=""/>
    <tripinfo id="I16" depart="17.00" departLane="E_1_0_0" departPos="5.10" departSpeed="0.00" departDelay="17.00" arrival="117.00" arrivalLane="E_0_4_0" arrivalPos="483.20" arrivalSpeed="11.17" duration="100.00" routeLength="999.48" waitingTime="5.00" waitingCount="1" stopTime="0.00" timeLoss="16.93" rerouteNo="0" devices="tripinfo_I16" vType="CarA" speedFactor="0.88" vaporized=""/>
    <tripinfo id="V57203" depart="24.00" departLane="E_3_0_0" departPos="0.00" departSpeed="10.00" departDelay="14.00" arrival="117.00" arrivalLane="E_0_2_0" arrivalPos="483.20" arrivalSpeed="13.99" duration="93.00" routeLength="974.93" waitingTime="4.00" waitingCount="1" stopTime="0.00" timeLoss="24.91" rerouteNo="0" devices="tripinfo_V57203" vType="CarA" speedFactor="1.05" vaporized=""/>
    <tripinfo id="V57214" depart="16.00" departLane="E_2_0_3" departPos="0.00" departSpeed="10.00" departDelay="0.00" arrival="118.00" arrivalLane="E_0_3_0" arrivalPos="480.00" arrivalSpeed="12.32" duration="102.00" routeLength="1000.65" waitingTime="9.00" waitingCount="1" stopTime="0.00" timeLoss="19.95" rerouteNo="0" devices="tripinfo_V57214" vType="CarA" speedFactor="0.89" vaporized=""/>
    <tripinfo id="V57216" depart="18.00" departLane="E_4_0_0" departPos="0.00" departSpeed="10.00" departDelay="0.00" arrival="119.00" arrivalLane="E_0_1_0" arrivalPos="486.40" arrivalSpeed="11.85" duration="101.00" routeLength="987.10" waitingTime="6.00" waitingCount="1" stopTime="0.00" timeLoss="17.72" rerouteNo="0" devices="tripinfo_V57216" vType="CarA" speedFactor="0.87" vaporized=""/>
    <tripinfo id="V57219" depart="21.00" departLane="E_4_0_0" departPos="0.00" departSpeed="10.00" departDelay="0.00" arrival="120.00" arrivalLane="E_0_1_0" arrivalPos="486.40" arrivalSpeed="13.58" duration="99.00" routeLength="987.10" waitingTime="5.00" waitingCount="1" stopTime="0.00" timeLoss="35.20" rerouteNo="0" devices="tripinfo_V57219" vType="CarA" speedFactor="1.13" vaporized=""/>
    <tripinfo id="V57220" depart="23.00" departLane="E_4_0_0" departPos="0.00" departSpeed="10.00" departDelay="0.00" arrival="122.00" arrivalLane="E_0_1_0" arrivalPos="486.40" arrivalSpeed="12.89" duration="99.00" routeLength="987.10" waitingTime="5.00" waitingCount="1" stopTime="0.00" timeLoss="21.16" rerouteNo="0" devices="tripinfo_V57220" vType="CarA" speedFactor="0.93" vaporized=""/>
    <tripinfo id="V57227" depart="35.00" departLane="E_3_0_0" departPos="0.00" departSpeed="10.00" departDelay="0.00" arrival="122.00" arrivalLane="E_0_2_0" arrivalPos="483.20" arrivalSpeed="12.86" duration="87.00" routeLength="974.93" waitingTime="0.00" waitingCount="0" stopTime="0.00" timeLoss="13.40" rerouteNo="0" devices="tripinfo_V57227" vType="CarA" speedFactor="0.97" vaporized=""/>
    <tripinfo id="V57215" depart="18.00" departLane="E_2_0_3" departPos="0.00" departSpeed="10.00" departDelay="0.00" arrival="123.00" arrivalLane="E_0_3_0" arrivalPos="480.00" arrivalSpeed="11.07" duration="105.00" routeLength="1000.65" waitingTime="5.00" waitingCount="1" stopTime="0.00" timeLoss="17.33" rerouteNo="0" devices="tripinfo_V57215" vType="CarA" speedFactor="0.83" vaporized=""/>
    <tripinfo id="V57224" depart="33.00" departLane="E_4_0_0" departPos="0.00" departSpeed="10.00" departDelay="0.00" arrival="123.00" arrivalLane="E_0_1_0" arrivalPos="486.40" arrivalSpeed="13.98" duration="90.00" routeLength="987.10" waitingTime="4.00" waitingCount="1" stopTime="0.00" timeLoss="28.48" rerouteNo="0" devices="tripinfo_V57224" vType="CarA" speedFactor="1.17" vaporized=""/>
    <tripinfo id="V57235" depart="41.00" departLane="E_3_0_0" departPos="0.00" departSpeed="10.00" departDelay="0.00" arrival="123.00" arrivalLane="E_0_2_1" arrivalPos="483.20" arrivalSpeed="13.61" duration="82.00" routeLength="974.93" waitingTime="0.00" waitingCount="0" stopTime="0.00" timeLoss="13.41" rerouteNo="0" devices="tripinfo_V57235" vType="CarA" speedFactor="1.04" vaporized=""/>
    <tripinfo id="V57231" depart="38.00" departLane="E_3_0_0" departPos="0.00" departSpeed="10.00" departDelay="0.00" arrival="124.00" arrivalLane="E_0_2_1" arrivalPos="483.20" arrivalSpeed="13.00" duration="86.00" routeLength="974.93" waitingTime="0.00" waitingCount="0" stopTime="0.00" timeLoss="16.99" rerouteNo="0" devices="tripinfo_V57231" vType="CarA" speedFactor="1.03" vaporized=""/>
    <tripinfo id="V57196" depart="22.00" departLane="E_3_0_0" departPos="0.00" departSpeed="10.00" departDelay="13.00" arrival="125.00" arrivalLane="E_0_2_0" arrivalPos="483.20" arrivalSpeed="11.24" duration="103.00" routeLength="974.93" waitingTime="4.00" waitingCount="1" stopTime="0.00" timeLoss="17.07" rerouteNo="0" devices="tripinfo_V57196" vType="CarA" speedFactor="0.83" vaporized=""/>
    <tripinfo id="V57226" depart="34.00" departLane="E_4_0_0" departPos="0.00" departSpeed="10.00" departDelay="0.00" arrival="125.00" arrivalLane="E_0_1_0" arrivalPos="486.40" arrivalSpeed="14.00" duration="91.00" routeLength="987.10" waitingTime="1.00" waitingCount="1" stopTime="0.00" timeLoss="20.02" rerouteNo="0" devices="tripinfo_V57226" vType="CarA" speedFactor="1.02" vaporized=""/>
    <tripinfo id="V57228" depart="36.00" departLane="E_4_0_0" departPos="0.00" departSpeed="10.00" departDelay="0.00" arrival="126.00" arrivalLane="E_0_1_0" arrivalPos="486.40" arrivalSpeed="16.11" duration="90.00" routeLength="987.10" waitingTime="0.00" waitingCount="0" stopTime="0.00" timeLoss="28.88" rerouteNo="0" devices="tripinfo_V57228" vType="CarA" speedFactor="1.18" vaporized=""/>
    <tripinfo id="V57246" depart="48.00" departLane="E_2_0_3" departPos="0.00" departSpeed="10.00" departDelay="0.00" arrival="126.00" arrivalLane="E_0_3_0" arrivalPos="480.00" arrivalSpeed="12.57" duration="78.00" routeLength="1000.65" waitingTime="0.00" waitingCount="0" stopTime="0.00" timeLoss="4.53" rerouteNo="0" devices="tripinfo_V57246" vType="CarA" speedFactor="1.00" vaporized=""/>
    <tripinfo id="V57230" depart="37.00" departLane="E_4_0_0" departPos="0.00" departSpeed="10.00" departDelay="0.00" arrival="128.00" arrivalLane="E_0_1_0" arrivalPos="486.40" arrivalSpeed="11.69" duration="91.00" routeLength="987.10" waitingTime="0.00" waitingCount="0" stopTime="0.00" timeLoss="11.10" rerouteNo="0" devices="tripinfo_V57230" vType="CarA" speedFactor="0.90" vaporized=""/>
    <tripinfo id="V57252" depart="55.00" departLane="E_4_0_0" departPos="0.00" departSpeed="10.00" departDelay="0.00" arrival="129.00" arrivalLane="E_0_1_0" arrivalPos="486.40" arrivalSpeed="14.91" duration="74.00" routeLength="987.10" waitingTime="0.00" waitingCount="0" stopTime="0.00" timeLoss="10.08" rerouteNo="0" devices="tripinfo_V57252" vType="CarA" speedFactor="1.12" vaporized=""/>
    <tripinfo id="V57251" depart="54.00" departLane="E_3_0_0" departPos="0.00" departSpeed="10.00" departDelay="0.00" arrival="130.00" arrivalLane="E_0_2_1" arrivalPos="483.20" arrivalSpeed="14.83" duration="76.00" routeLength="974.93" waitingTime="0.00" waitingCount="0" stopTime="0.00" timeLoss="9.79" rerouteNo="0" devices="tripinfo_V57251" vType="CarA" speedFactor="1.08" vaporized=""/>
    <tripinfo id="V57238" depart="42.00" departLane="E_3_0_0" departPos="0.00" departSpeed="10.00" departDelay="0.00" arrival="131.00" arrivalLane="E_0_2_0" arrivalPos="483.20" arrivalSpeed="11.86" duration="89.00" routeLength="974.93" waitingTime="0.00" waitingCount="0" stopTime="0.00" timeLoss="9.66" rerouteNo="0" devices="tripinfo_V57238" vType="CarA" speedFactor="0.90" vaporized=""/>
    <tripinfo id="V57259" depart="59.00" departLane="E_4_0_0" departPos="0.00" departSpeed="10.00" departDelay="0.00" arrival="133.00" arrivalLane="E_0_1_0" arrivalPos="486.40" arrivalSpeed="13.32" duration="74.00" routeLength="987.10" waitingTime="0.00" waitingCount="0" stopTime="0.00" timeLoss="4.72" rerouteNo="0" devices="tripinfo_V57259" vType="CarA" speedFactor="1.04" vaporized=""/>
    <tripinfo id="V57247" depart="49.00" departLane="E_3_0_0" departPos="0.00" departSpeed="10.00" departDelay="0.00" arrival="135.00" arrivalLane="E_0_2_0" arrivalPos="483.20" arrivalSpeed="11.60" duration="86.00" routeLength="974.93" waitingTime="0.00" waitingCount="0" stopTime="0.00" timeLoss="6.79" rerouteNo="0" devices="tripinfo_V57247" vType="CarA" speedFactor="0.90" vaporized=""/>
    <tripinfo id="V57254" depart="57.00" departLane="E_3_0_0" departPos="0.00" departSpeed="10.00" departDelay="0.00" arrival="135.00" arrivalLane="E_0_2_1" arrivalPos="483.20" arrivalSpeed="13.24" duration="78.00" routeLength="974.93" waitingTime="0.00" waitingCount="0" stopTime="0.00" timeLoss="5.90" rerouteNo="0" devices="tripinfo_V57254" vType="CarA" speedFactor="0.99" vaporized=""/>
    <tripinfo id="V57210" depart="25.00" departLane="E_1_0_0" departPos="0.00" departSpeed="10.00" departDelay="12.00" arrival="136.00" arrivalLane="E_0_3_1" arrivalPos="480.00" arrivalSpeed="15.36" duration="111.00" routeLength="978.13" waitingTime="32.00" waitingCount="1" stopTime="0.00" timeLoss="48.98" rerouteNo="0" devices="tripinfo_V57210" vType="CarA" speedFactor="1.16" vaporized=""/>
    <tripinfo id="V57242" depart="44.00" departLane="E_2_0_1" departPos="0.00" departSpeed="10.00" departDelay="0.00" arrival="136.00" arrivalLane="E_0_4_1" arrivalPos="483.20" arrivalSpeed="14.74" duration="92.00" routeLength="983.25" waitingTime="20.00" waitingCount="1" stopTime="0.00" timeLoss="30.49" rerouteNo="0" devices="tripinfo_V57242" vType="CarA" speedFactor="1.17" vaporized=""/>
    <tripinfo id="V57194" depart="6.00" departLane="E_3_0_2" departPos="0.00" departSpeed="10.00" departDelay="0.00" arrival="138.00" arrivalLane="E_0_1_0" arrivalPos="486.40" arrivalSpeed="13.74" duration="132.00" routeLength="996.25" waitingTime="55.00" waitingCount="1" stopTime="0.00" timeLoss="64.81" rerouteNo="0" devices="tripinfo_V57194" vType="CarA" speedFactor="1.08" vaporized=""/>
    <tripinfo id="V57221" depart="26.00" departLane="E_1_0_0" departPos="0.00" departSpeed="10.00" departDelay="2.00" arrival="138.00" arrivalLane="E_0_3_1" arrivalPos="480.00" arrivalSpeed="15.02" duration="112.00" routeLength="978.13" waitingTime="31.00" waitingCount="1" stopTime="0.00" timeLoss="51.00" rerouteNo="0" devices="tripinfo_V57221" vType="CarA" speedFactor="1.18" vaporized=""/>
    <tripinfo id="I3" depart="6.00" departLane="E_3_0_0" departPos="5.10" departSpeed="0.00" departDelay="6.00" arrival="139.00" arrivalLane="E_0_1_0" arrivalPos="486.40" arrivalSpeed="14.71" duration="133.00" routeLength="991.15" waitingTime="54.00" waitingCount="1" stopTime="0.00" timeLoss="66.78" rerouteNo="0" devices="tripinfo_I3" vType="CarA" speedFactor="1.08" vaporized=""/>
    <tripinfo id="V57205" depart="23.00" departLane="E_1_0_0" departPos="0.00" departSpeed="10.00" departDelay="12.00" arrival="139.00" arrivalLane="E_0_3_0" arrivalPos="480.00" arrivalSpeed="12.49" duration="116.00" routeLength="978.13" waitingTime="33.00" waitingCount="1" stopTime="0.00" timeLoss="43.85" rerouteNo="0" devices="tripinfo_V57205" vType="CarA" speedFactor="0.99" vaporized=""/>
    <tripinfo id="V57223" depart="29.00" departLane="E_2_0_0" departPos="0.00" departSpeed="10.00" departDelay="0.00" arrival="139.00" arrivalLane="E_0_4_0" arrivalPos="483.20" arrivalSpeed="13.83" duration="110.00" routeLength="975.43" waitingTime="30.00" waitingCount="1" stopTime="0.00" timeLoss="38.90" rerouteNo="0" devices="tripinfo_V57223" vType="CarA" speedFactor="1.01" vaporized=""/>
    <tripinfo id="V57225" depart="34.00" departLane="E_2_0_1" departPos="0.00" departSpeed="10.00" departDelay="0.00" arrival="140.00" arrivalLane="E_0_4_1" arrivalPos="483.20" arrivalSpeed="13.29" duration="106.00" routeLength="983.25" waitingTime="24.00" waitingCount="1" stopTime="0.00" timeLoss="33.91" rerouteNo="0" devices="tripinfo_V57225" vType="CarA" speedFactor="0.99" vaporized=""/>
    <tripinfo id="V57245" depart="48.00" departLane="E_2_0_0" departPos="0.00" departSpeed="10.00" departDelay="0.00" arrival="141.00" arrivalLane="E_0_4_0" arrivalPos="483.20" arrivalSpeed="13.13" duration="93.00" routeLength="975.43" waitingTime="12.00" waitingCount="1" stopTime="0.00" timeLoss="22.13" rerouteNo="0" devices="tripinfo_V57245" vType="CarA" speedFactor="1.00" vaporized=""/>
    <tripinfo id="V57229" depart="37.00" departLane="E_1_0_0" departPos="0.00" departSpeed="10.00" departDelay="0.00" arrival="142.00" arrivalLane="E_0_3_0" arrivalPos="480.00" arrivalSpeed="14.65" duration="105.00" routeLength="978.13" waitingTime="27.00" waitingCount="1" stopTime="0.00" timeLoss="39.50" rerouteNo="0" devices="tripinfo_V57229" vType="CarA" speedFactor="1.10" vaporized=""/>
    <tripinfo id="V57260" depart="61.00" departLane="E_2_0_0" departPos="0.00" departSpeed="10.00" departDelay="0.00" arrival="142.00" arrivalLane="E_0_4_1" arrivalPos="483.20" arrivalSpeed="14.10" duration="81.00" routeLength="983.25" waitingTime="2.00" waitingCount="1" stopTime="0.00" timeLoss="10.90" rerouteNo="0" devices="tripinfo_V57260" vType="CarA" speedFactor="1.02" vaporized=""/>
    <tripinfo id="V57212" depart="14.00" departLane="E_3_0_2" departPos="0.00" departSpeed="10.00" departDelay="0.00" arrival="144.00" arrivalLane="E_0_1_0" arrivalPos="486.40" arrivalSpeed="13.19" duration="130.00" routeLength="996.25" waitingTime="46.00" waitingCount="1" stopTime="0.00" timeLoss="58.05" rerouteNo="0" devices="tripinfo_V57212" vType="CarA" speedFactor="1.01" vaporized=""/>
    <tripinfo id="V57208" depart="11.00" departLane="E_4_0_2" departPos="0.00" departSpeed="10.00" departDelay="0.00" arrival="145.00" arrivalLane="E_0_2_1" arrivalPos="483.20" arrivalSpeed="12.28" duration="134.00" routeLength="1006.92" waitingTime="44.00" waitingCount="1" stopTime="0.00" timeLoss="56.80" rerouteNo="0" devices="tripinfo_V57208" vType="CarA" speedFactor="0.94" vaporized=""/>
    <tripinfo id="V57198" depart="9.00" departLane="E_4_0_2" departPos="0.00" departSpeed="10.00" departDelay="0.00" arrival="146.00" arrivalLane="E_0_2_0" arrivalPos="483.20" arrivalSpeed="11.04" duration="137.00" routeLength="1006.92" waitingTime="45.00" waitingCount="1" stopTime="0.00" timeLoss="54.49" rerouteNo="0" devices="tripinfo_V57198" vType="CarA" speedFactor="0.89" vaporized=""/>
    <tripinfo id="V57249" depart="50.00" departLane="E_1_0_0" departPos="0.00" departSpeed="10.00" departDelay="0.00" arrival="146.00" arrivalLane="E_0_3_0" arrivalPos="480.00" arrivalSpeed="13.81" duration="96.00" routeLength="978.13" waitingTime="14.00" waitingCount="1" stopTime="0.00" timeLoss="26.32" rerouteNo="0" devices="tripinfo_V57249" vType="CarA" speedFactor="1.02" vaporized=""/>
    <tripinfo id="V57268" depart="68.00" departLane="E_2_0_1" departPos="0.00" departSpeed="10.00" departDelay="0.00" arrival="146.00" arrivalLane="E_0_4_0" arrivalPos="483.20" arrivalSpeed="12.99" duration="78.00" routeLength="975.43" waitingTime="0.00" waitingCount="0" stopTime="0.00" timeLoss="5.74" rerouteNo="0" devices="tripinfo_V57268" vType="CarA" speedFactor="0.98" vaporized=""/>
    <tripinfo id="V57248" depart="49.00" departLane="E_4_0_2" departPos="0.00" departSpeed="10.00" departDelay="0.00" arrival="147.00" arrivalLane="E_0_2_2" arrivalPos="483.20" arrivalSpeed="14.75" duration="98.00" routeLength="1006.92" waitingTime="12.00" waitingCount="1" stopTime="0.00" timeLoss="33.53" rerouteNo="0" devices="tripinfo_V57248" vType="CarA" speedFactor="1.14" vaporized=""/>
    <tripinfo id="V57217" depart="18.00" departLane="E_4_0_2" departPos="0.00" departSpeed="10.00" departDelay="0.00" arrival="148.00" arrivalLane="E_0_2_0" arrivalPos="483.20" arrivalSpeed="12.65" duration="130.00" routeLength="1006.92" waitingTime="40.00" waitingCount="1" stopTime="0.00" timeLoss="50.45" rerouteNo="0" devices="tripinfo_V57217" vType="CarA" speedFactor="0.92" vaporized=""/>
    <tripinfo id="V57243" depart="44.00" departLane="E_4_0_2" departPos="0.00" departSpeed="10.00" departDelay="0.00" arrival="148.00" arrivalLane="E_0_2_1" arrivalPos="483.20" arrivalSpeed="13.78" duration="104.00" routeLength="1006.92" waitingTime="14.00" waitingCount="1" stopTime="0.00" timeLoss="32.20" rerouteNo="0" devices="tripinfo_V57243" vType="CarA" speedFactor="1.02" vaporized=""/>
    <tripinfo id="I15" depart="17.00" departLane="E_3_0_0" departPos="5.10" departSpeed="0.00" departDelay="17.00" arrival="149.00" arrivalLane="E_0_1_0" arrivalPos="486.40" arrivalSpeed="11.80" duration="132.00" routeLength="991.15" waitingTime="41.00" waitingCount="1" stopTime="0.00" timeLoss="54.38" rerouteNo="0" devices="tripinfo_I15" vType="CarA" speedFactor="0.93" vaporized=""/>
    <tripinfo id="V57269" depart="69.00" departLane="E_1_0_0" departPos="0.00" departSpeed="10.00" departDelay="0.00" arrival="149.00" arrivalLane="E_0_3_0" arrivalPos="480.00" arrivalSpeed="13.53" duration="80.00" routeLength="978.13" waitingTime="0.00" waitingCount="0" stopTime="0.00" timeLoss="8.59" rerouteNo="0" devices="tripinfo_V57269" vType="CarA" speedFactor="1.01" vaporized=""/>
    <tripinfo id="V57272" depart="72.00" departLane="E_2_0_0" departPos="0.00" departSpeed="10.00" departDelay="0.00" arrival="149.00" arrivalLane="E_0_4_1" arrivalPos="483.20" arrivalSpeed="13.21" duration="77.00" routeLength="983.25" waitingTime="0.00" waitingCount="0" stopTime="0.00" timeLoss="5.11" rerouteNo="0" devices="tripinfo_V57272" vType="CarA" speedFactor="1.00" vaporized=""/>
    <tripinfo id="V57273" depart="74.00" departLane="E_2_0_0" departPos="0.00" departSpeed="10.00" departDelay="1.00" arrival="150.00" arrivalLane="E_0_4_0" arrivalPos="483.20" arrivalSpeed="13.50" duration="76.00" routeLength="975.43" waitingTime="0.00" waitingCount="0" stopTime="0.00" timeLoss="5.84" rerouteNo="0" devices="tripinfo_V57273" vType="CarA" speedFactor="1.02" vaporized=""/>