<?xml version="1.0" encoding="UTF-8"?>

<!-- generated on 2023-05-24 01:44:34 by Eclipse SUMO GUI Version 1.16.0
<configuration xmlns:xsi="http://www.w3.org/2001/XMLSchema-instance" xsi:noNamespaceSchemaLocation="http://sumo.dlr.de/xsd/sumoConfiguration.xsd">

    <input>
        <net-file value="creators/sumo_files/app.net.xml"/>
        <route-files value="creators/sumo_files/app.rou.xml"/>
        <additional-files value="creators/sumo_files/app.program.xml"/>
    </input>

    <output>
        <tripinfo-output value="app.tripinfo.xml"/>
    </output>

    <time>
        <begin value="0"/>
        <end value="54900"/>
    </time>

    <processing>
        <time-to-teleport value="-1"/>
    </processing>

    <report>
        <verbose value="true"/>
        <no-step-log value="true"/>
    </report>

    <traci_server>
        <remote-port value="62837"/>
    </traci_server>

</configuration>
-->

<tripinfos xmlns:xsi="http://www.w3.org/2001/XMLSchema-instance" xsi:noNamespaceSchemaLocation="http://sumo.dlr.de/xsd/tripinfo_file.xsd">
    <tripinfo id="I0" depart="0.00" departLane="E_2_0_0" departPos="5.10" departSpeed="0.00" departDelay="0.00" arrival="74.00" arrivalLane="E_0_1_0" arrivalPos="486.40" arrivalSpeed="13.59" duration="74.00" routeLength="995.12" waitingTime="0.00" waitingCount="0" stopTime="0.00" timeLoss="6.40" rerouteNo="0" devices="tripinfo_I0" vType="CarA" speedFactor="1.06" vaporized=""/>
    <tripinfo id="I6" depart="2.00" departLane="E_2_0_0" departPos="5.10" departSpeed="0.00" departDelay="2.00" arrival="77.00" arrivalLane="E_0_4_0" arrivalPos="486.40" arrivalSpeed="13.06" duration="75.00" routeLength="982.27" waitingTime="0.00" waitingCount="0" stopTime="0.00" timeLoss="6.91" rerouteNo="0" devices="tripinfo_I6" vType="CarA" speedFactor="1.05" vaporized=""/>
    <tripinfo id="I1" depart="0.00" departLane="E_1_0_0" departPos="5.10" departSpeed="0.00" departDelay="0.00" arrival="84.00" arrivalLane="E_0_3_0" arrivalPos="486.40" arrivalSpeed="12.59" duration="84.00" routeLength="982.27" waitingTime="0.00" waitingCount="0" stopTime="0.00" timeLoss="7.54" rerouteNo="0" devices="tripinfo_I1" vType="CarA" speedFactor="0.94" vaporized=""/>
    <tripinfo id="I4" depart="2.00" departLane="E_1_0_0" departPos="5.10" departSpeed="0.00" departDelay="2.00" arrival="86.00" arrivalLane="E_0_3_0" arrivalPos="486.40" arrivalSpeed="13.57" duration="84.00" routeLength="982.27" waitingTime="0.00" waitingCount="0" stopTime="0.00" timeLoss="13.89" rerouteNo="0" devices="tripinfo_I4" vType="CarA" speedFactor="1.03" vaporized=""/>
    <tripinfo id="I11" depart="9.00" departLane="E_1_0_0" departPos="5.10" departSpeed="0.00" departDelay="9.00" arrival="88.00" arrivalLane="E_0_3_0" arrivalPos="486.40" arrivalSpeed="13.26" duration="79.00" routeLength="982.27" waitingTime="0.00" waitingCount="0" stopTime="0.00" timeLoss="8.44" rerouteNo="0" devices="tripinfo_I11" vType="CarA" speedFactor="1.03" vaporized=""/>
    <tripinfo id="I14" depart="11.00" departLane="E_1_0_0" departPos="5.10" departSpeed="0.00" departDelay="11.00" arrival="93.00" arrivalLane="E_0_3_0" arrivalPos="486.40" arrivalSpeed="12.58" duration="82.00" routeLength="982.27" waitingTime="1.00" waitingCount="1" stopTime="0.00" timeLoss="9.71" rerouteNo="0" devices="tripinfo_I14" vType="CarA" speedFactor="0.99" vaporized=""/>
    <tripinfo id="V4408" depart="16.00" departLane="E_1_0_0" departPos="0.00" departSpeed="10.00" departDelay="7.00" arrival="95.00" arrivalLane="E_0_3_0" arrivalPos="486.40" arrivalSpeed="14.41" duration="79.00" routeLength="987.37" waitingTime="0.00" waitingCount="0" stopTime="0.00" timeLoss="11.83" rerouteNo="0" devices="tripinfo_V4408" vType="CarA" speedFactor="1.08" vaporized=""/>
    <tripinfo id="V4409" depart="18.00" departLane="E_1_0_0" departPos="0.00" departSpeed="10.00" departDelay="8.00" arrival="96.00" arrivalLane="E_0_3_0" arrivalPos="486.40" arrivalSpeed="13.57" duration="78.00" routeLength="987.37" waitingTime="0.00" waitingCount="0" stopTime="0.00" timeLoss="8.02" rerouteNo="0" devices="tripinfo_V4409" vType="CarA" speedFactor="1.03" vaporized=""/>
    <tripinfo id="I5" depart="5.00" departLane="E_1_0_0" departPos="5.10" departSpeed="0.00" departDelay="5.00" arrival="99.00" arrivalLane="E_0_2_0" arrivalPos="486.40" arrivalSpeed="10.83" duration="94.00" routeLength="995.12" waitingTime="0.00" waitingCount="0" stopTime="0.00" timeLoss="7.50" rerouteNo="0" devices="tripinfo_I5" vType="CarA" speedFactor="0.83" vaporized=""/>
    <tripinfo id="I19" depart="4.00" departLane="E_2_0_0" departPos="5.10" departSpeed="0.00" departDelay="4.00" arrival="102.00" arrivalLane="E_0_3_0" arrivalPos="486.40" arrivalSpeed="14.86" duration="98.00" routeLength="992.21" waitingTime="24.00" waitingCount="1" stopTime="0.00" timeLoss="35.01" rerouteNo="0" devices="tripinfo_I19" vType="CarA" speedFactor="1.16" vaporized=""/>
    <tripinfo id="I8" depart="7.00" departLane="E_1_0_0" departPos="5.10" departSpeed="0.00" departDelay="7.00" arrival="109.00" arrivalLane="E_0_4_0" arrivalPos="486.40" arrivalSpeed="12.71" duration="102.00" routeLength="992.21" waitingTime="14.00" waitingCount="1" stopTime="0.00" timeLoss="25.11" rerouteNo="0" devices="tripinfo_I8" vType="CarA" speedFactor="0.94" vaporized=""/>
    <tripinfo id="V4413" depart="28.00" departLane="E_3_0_0" departPos="0.00" departSpeed="10.00" departDelay="0.00" arrival="111.00" arrivalLane="E_0_2_0" arrivalPos="486.40" arrivalSpeed="12.44" duration="83.00" routeLength="987.37" waitingTime="0.00" waitingCount="0" stopTime="0.00" timeLoss="5.16" rerouteNo="0" devices="tripinfo_V4413" vType="CarA" speedFactor="0.94" vaporized=""/>
    <tripinfo id="I9" depart="3.00" departLane="E_4_0_0" departPos="5.10" departSpeed="0.00" departDelay="3.00" arrival="113.00" arrivalLane="E_0_1_0" arrivalPos="486.40" arrivalSpeed="10.63" duration="110.00" routeLength="982.27" waitingTime="15.00" waitingCount="1" stopTime="0.00" timeLoss="26.55" rerouteNo="0" devices="tripinfo_I9" vType="CarA" speedFactor="0.86" vaporized=""/>
    <tripinfo id="I10" depart="5.00" departLane="E_4_0_0" departPos="5.10" departSpeed="0.00" departDelay="5.00" arrival="114.00" arrivalLane="E_0_1_0" arrivalPos="486.40" arrivalSpeed="14.62" duration="109.00" routeLength="982.27" waitingTime="14.00" waitingCount="1" stopTime="0.00" timeLoss="43.55" rerouteNo="0" devices="tripinfo_I10" vType="CarA" speedFactor="1.09" vaporized=""/>
    <tripinfo id="I13" depart="7.00" departLane="E_4_0_0" departPos="5.10" departSpeed="0.00" departDelay="7.00" arrival="116.00" arrivalLane="E_0_1_0" arrivalPos="486.40" arrivalSpeed="14.12" duration="109.00" routeLength="982.27" waitingTime="13.00" waitingCount="1" stopTime="0.00" timeLoss="44.79" rerouteNo="0" devices="tripinfo_I13" vType="CarA" speedFactor="1.12" vaporized=""/>
    <tripinfo id="I16" depart="11.00" departLane="E_4_0_0" departPos="5.10" departSpeed="0.00" departDelay="11.00" arrival="118.00" arrivalLane="E_0_1_0" arrivalPos="486.40" arrivalSpeed="10.76" duration="107.00" routeLength="982.27" waitingTime="11.00" waitingCount="1" stopTime="0.00" timeLoss="25.69" rerouteNo="0" devices="tripinfo_I16" vType="CarA" speedFactor="0.88" vaporized=""/>
    <tripinfo id="V4405" depart="17.00" departLane="E_4_0_0" departPos="0.00" departSpeed="10.00" departDelay="16.00" arrival="120.00" arrivalLane="E_0_1_0" arrivalPos="486.40" arrivalSpeed="13.75" duration="103.00" routeLength="987.37" waitingTime="9.00" waitingCount="1" stopTime="0.00" timeLoss="34.78" rerouteNo="0" devices="tripinfo_V4405" vType="CarA" speedFactor="1.06" vaporized=""/>
    <tripinfo id="V4420" depart="43.00" departLane="E_2_0_2" departPos="0.00" departSpeed="10.00" departDelay="0.00" arrival="127.00" arrivalLane="E_0_3_0" arrivalPos="486.40" arrivalSpeed="12.86" duration="84.00" routeLength="997.31" waitingTime="0.00" waitingCount="0" stopTime="0.00" timeLoss="5.18" rerouteNo="0" devices="tripinfo_V4420" vType="CarA" speedFactor="0.93" vaporized=""/>
    <tripinfo id="V4424" depart="51.00" departLane="E_2_0_2" departPos="0.00" departSpeed="10.00" departDelay="0.00" arrival="128.00" arrivalLane="E_0_3_0" arrivalPos="486.40" arrivalSpeed="13.53" duration="77.00" routeLength="997.31" waitingTime="0.00" waitingCount="0" stopTime="0.00" timeLoss="14.32" rerouteNo="0" devices="tripinfo_V4424" vType="CarA" speedFactor="1.16" vaporized=""/>
    <tripinfo id="I3" depart="0.00" departLane="E_3_0_0" departPos="5.10" departSpeed="0.00" departDelay="0.00" arrival="138.00" arrivalLane="E_0_1_0" arrivalPos="486.40" arrivalSpeed="14.77" duration="138.00" routeLength="992.21" waitingTime="60.00" waitingCount="1" stopTime="0.00" timeLoss="70.88" rerouteNo="0" devices="tripinfo_I3" vType="CarA" speedFactor="1.08" vaporized=""/>
    <tripinfo id="V4426" depart="54.00" departLane="E_2_0_0" departPos="0.00" departSpeed="10.00" departDelay="0.00" arrival="139.00" arrivalLane="E_0_4_0" arrivalPos="486.40" arrivalSpeed="13.30" duration="85.00" routeLength="987.37" waitingTime="6.00" waitingCount="1" stopTime="0.00" timeLoss="13.23" rerouteNo="0" devices="tripinfo_V4426" vType="CarA" speedFactor="1.01" vaporized=""/>
    <tripinfo id="I2" depart="0.00" departLane="E_4_0_0" departPos="5.10" departSpeed="0.00" departDelay="0.00" arrival="140.00" arrivalLane="E_0_2_0" arrivalPos="486.40" arrivalSpeed="13.49" duration="140.00" routeLength="992.21" waitingTime="57.00" waitingCount="1" stopTime="0.00" timeLoss="68.03" rerouteNo="0" devices="tripinfo_I2" vType="CarA" speedFactor="1.01" vaporized=""/>
    <tripinfo id="I12" depart="4.00" departLane="E_3_0_0" departPos="5.10" departSpeed="0.00" departDelay="4.00" arrival="140.00" arrivalLane="E_0_1_0" arrivalPos="486.40" arrivalSpeed="14.25" duration="136.00" routeLength="992.21" waitingTime="55.00" waitingCount="1" stopTime="0.00" timeLoss="67.27" rerouteNo="0" devices="tripinfo_I12" vType="CarA" speedFactor="1.05" vaporized=""/>
    <tripinfo id="V4407" depart="5.00" departLane="E_4_0_2" departPos="0.00" departSpeed="10.00" departDelay="0.00" arrival="141.00" arrivalLane="E_0_2_0" arrivalPos="486.40" arrivalSpeed="13.78" duration="136.00" routeLength="997.31" waitingTime="55.00" waitingCount="1" stopTime="0.00" timeLoss="64.26" rerouteNo="0" devices="tripinfo_V4407" vType="CarA" speedFactor="1.01" vaporized=""/>
    <tripinfo id="V4423" depart="49.00" departLane="E_1_0_0" departPos="0.00" departSpeed="10.00" departDelay="0.00" arrival="142.00" arrivalLane="E_0_3_0" arrivalPos="486.40" arrivalSpeed="11.97" duration="93.00" routeLength="987.37" waitingTime="8.00" waitingCount="1" stopTime="0.00" timeLoss="15.83" rerouteNo="0" devices="tripinfo_V4423" vType="CarA" speedFactor="0.94" vaporized=""/>
    <tripinfo id="V4427" depart="58.00" departLane="E_2_0_0" departPos="0.00" departSpeed="10.00" departDelay="0.00" arrival="142.00" arrivalLane="E_0_4_0" arrivalPos="486.40" arrivalSpeed="12.90" duration="84.00" routeLength="987.37" waitingTime="2.00" waitingCount="1" stopTime="0.00" timeLoss="10.20" rerouteNo="0" devices="tripinfo_V4427" vType="CarA" speedFactor="0.97" vaporized=""/>
    <tripinfo id="I15" depart="9.00" departLane="E_4_0_0" departPos="5.10" departSpeed="0.00" departDelay="9.00" arrival="146.00" arrivalLane="E_0_2_0" arrivalPos="486.40" arrivalSpeed="12.07" duration="137.00" routeLength="992.21" waitingTime="49.00" waitingCount="1" stopTime="0.00" timeLoss="59.26" rerouteNo="0" devices="tripinfo_I15" vType="CarA" speedFactor="0.93" vaporized=""/>
    <tripinfo id="V4428" depart="59.00" departLane="E_1_0_0" departPos="0.00" departSpeed="10.00" departDelay="0.00" arrival="146.00" arrivalLane="E_0_3_0" arrivalPos="486.40" arrivalSpeed="11.21" duration="87.00" routeLength="987.37" waitingTime="0.00" waitingCount="0" stopTime="0.00" timeLoss="6.04" rerouteNo="0" devices="tripinfo_V4428" vType="CarA" speedFactor="0.89" vaporized=""/>
    <tripinfo id="V4432" depart="66.00" departLane="E_2_0_0" departPos="0.00" departSpeed="10.00" departDelay="0.00" arrival="148.00" arrivalLane="E_0_4_0" arrivalPos="486.40" arrivalSpeed="11.95" duration="82.00" routeLength="987.37" waitingTime="0.00" waitingCount="0" stopTime="0.00" timeLoss="5.77" rerouteNo="0" devices="tripinfo_V4432" vType="CarA" speedFactor="0.95" vaporized=""/>
    <tripinfo id="I7" depart="2.00" departLane="E_3_0_0" departPos="5.10" departSpeed="0.00" departDelay="2.00" arrival="150.00" arrivalLane="E_0_1_0" arrivalPos="486.40" arrivalSpeed="11.09" duration="148.00" routeLength="992.21" waitingTime="53.00" waitingCount="1" stopTime="0.00" timeLoss="65.85" rerouteNo="0" devices="tripinfo_I7" vType="CarA" speedFactor="0.89" vaporized=""/>
    <tripinfo id="V4431" depart="65.00" departLane="E_1_0_0" departPos="0.00" departSpeed="10.00" departDelay="0.00" arrival="150.00" arrivalLane="E_0_3_0" arrivalPos="486.40" arrivalSpeed="12.48" duration="85.00" routeLength="987.37" waitingTime="0.00" waitingCount="0" stopTime="0.00" timeLoss="5.94" rerouteNo="0" devices="tripinfo_V4431" vType="CarA" speedFactor="0.92" vaporized=""/>
    <tripinfo id="V4421" depart="43.00" departLane="E_4_0_2" departPos="0.00" departSpeed="10.00" departDelay="0.00" arrival="151.00" arrivalLane="E_0_2_0" arrivalPos="486.40" arrivalSpeed="11.15" duration="108.00" routeLength="997.31" waitingTime="16.00" waitingCount="1" stopTime="0.00" timeLoss="25.50" rerouteNo="0" devices="tripinfo_V4421" vType="CarA" speedFactor="0.88" vaporized=""/>
    <tripinfo id="V4422" depart="47.00" departLane="E_4_0_2" departPos="0.00" departSpeed="10.00" departDelay="0.00" arrival="153.00" arrivalLane="E_0_2_0" arrivalPos="486.40" arrivalSpeed="12.60" duration="106.00" routeLength="997.31" waitingTime="13.00" waitingCount="1" stopTime="0.00" timeLoss="28.54" rerouteNo="0" devices="tripinfo_V4422" vType="CarA" speedFactor="0.94" vaporized=""/>
    <tripinfo id="V4410" depart="10.00" departLane="E_3_0_2" departPos="0.00" departSpeed="10.00" departDelay="0.00" arrival="154.00" arrivalLane="E_0_1_0" arrivalPos="486.40" arrivalSpeed="11.32" duration="144.00" routeLength="997.31" waitingTime="44.00" waitingCount="1" stopTime="0.00" timeLoss="56.72" rerouteNo="0" devices="tripinfo_V4410" vType="CarA" speedFactor="0.83" vaporized=""/>
    <tripinfo id="V4425" depart="51.00" departLane="E_4_0_2" departPos="0.00" departSpeed="10.00" departDelay="0.00" arrival="154.00" arrivalLane="E_0_2_0" arrivalPos="486.40" arrivalSpeed="14.10" duration="103.00" routeLength="997.31" waitingTime="13.00" waitingCount="1" stopTime="0.00" timeLoss="31.74" rerouteNo="0" devices="tripinfo_V4425" vType="CarA" speedFactor="1.02" vaporized=""/>
    <tripinfo id="V4437" depart="79.00" departLane="E_1_0_0" departPos="0.00" departSpeed="10.00" departDelay="0.00" arrival="155.00" arrivalLane="E_0_3_0" arrivalPos="486.40" arrivalSpeed="13.64" duration="76.00" routeLength="987.37" waitingTime="0.00" waitingCount="0" stopTime="0.00" timeLoss="4.39" rerouteNo="0" devices="tripinfo_V4437" vType="CarA" speedFactor="1.01" vaporized=""/>
    <tripinfo id="V4412" depart="21.00" departLane="E_3_0_2" departPos="0.00" departSpeed="10.00" departDelay="0.00" arrival="156.00" arrivalLane="E_0_1_0" arrivalPos="486.40" arrivalSpeed="11.03" duration="135.00" routeLength="997.31" waitingTime="38.00" waitingCount="1" stopTime="0.00" timeLoss="52.58" rerouteNo="0" devices="tripinfo_V4412" vType="CarA" speedFactor="0.89" vaporized=""/>
    <tripinfo id="V4419" depart="42.00" departLane="E_3_0_2" departPos="0.00" departSpeed="10.00" departDelay="0.00" arrival="157.00" arrivalLane="E_0_1_0" arrivalPos="486.40" arrivalSpeed="13.48" duration="115.00" routeLength="997.31" waitingTime="21.00" waitingCount="1" stopTime="0.00" timeLoss="41.58" rerouteNo="0" devices="tripinfo_V4419" vType="CarA" speedFactor="0.99" vaporized=""/>
    <tripinfo id="V4440" depart="85.00" departLane="E_4_0_2" departPos="0.00" departSpeed="10.00" departDelay="0.00" arrival="161.00" arrivalLane="E_0_2_0" arrivalPos="486.40" arrivalSpeed="13.77" duration="76.00" routeLength="997.31" waitingTime="0.00" waitingCount="0" stopTime="0.00" timeLoss="4.22" rerouteNo="0" devices="tripinfo_V4440" vType="CarA" speedFactor="1.02" vaporized=""/>
    <tripinfo id="V4443" depart="90.00" departLane="E_4_0_2" departPos="0.00" departSpeed="10.00" departDelay="0.00" arrival="162.00" arrivalLane="E_0_2_0" arrivalPos="486.40" arrivalSpeed="14.29" duration="72.00" routeLength="997.31" waitingTime="0.00" waitingCount="0" stopTime="0.00" timeLoss="5.76" rerouteNo="0" devices="tripinfo_V4443" vType="CarA" speedFactor="1.10" vaporized=""/>
    <tripinfo id="V4445" depart="92.00" departLane="E_4_0_2" departPos="0.00" departSpeed="10.00" departDelay="0.00" arrival="167.00" arrivalLane="E_0_2_0" arrivalPos="486.40" arrivalSpeed="13.57" duration="75.00" routeLength="997.31" waitingTime="0.00" waitingCount="0" stopTime="0.00" timeLoss="4.35" rerouteNo="0" devices="tripinfo_V4445" vType="CarA" speedFactor="1.03" vaporized=""/>
    <tripinfo id="V4433" depart="67.00" departLane="E_3_0_0" departPos="0.00" departSpeed="10.00" departDelay="0.00" arrival="168.00" arrivalLane="E_0_2_0" arrivalPos="486.40" arrivalSpeed="14.56" duration="101.00" routeLength="987.37" waitingTime="25.00" waitingCount="1" stopTime="0.00" timeLoss="37.49" rerouteNo="0" devices="tripinfo_V4433" vType="CarA" speedFactor="1.13" vaporized=""/>
    <tripinfo id="I17" depart="7.00" departLane="E_3_0_0" departPos="5.10" departSpeed="0.00" departDelay="7.00" arrival="175.00" arrivalLane="E_0_4_0" arrivalPos="486.40" arrivalSpeed="12.04" duration="168.00" routeLength="995.12" waitingTime="80.00" waitingCount="1" stopTime="0.00" timeLoss="91.31" rerouteNo="0" devices="tripinfo_I17" vType="CarA" speedFactor="0.94" vaporized=""/>
    <tripinfo id="V4406" depart="3.00" departLane="E_4_0_1" departPos="0.00" departSpeed="10.00" departDelay="0.00" arrival="175.00" arrivalLane="E_0_3_0" arrivalPos="486.40" arrivalSpeed="12.76" duration="172.00" routeLength="1000.22" waitingTime="86.00" waitingCount="1" stopTime="0.00" timeLoss="94.98" rerouteNo="0" devices="tripinfo_V4406" vType="CarA" speedFactor="0.94" vaporized=""/>
    <tripinfo id="I18" depart="14.00" departLane="E_4_0_0" departPos="5.10" departSpeed="0.00" departDelay="14.00" arrival="177.00" arrivalLane="E_0_3_0" arrivalPos="486.40" arrivalSpeed="11.81" duration="163.00" routeLength="995.12" waitingTime="76.00" waitingCount="1" stopTime="0.00" timeLoss="86.04" rerouteNo="0" devices="tripinfo_I18" vType="CarA" speedFactor="0.94" vaporized=""/>
    <tripinfo id="V4434" depart="69.00" departLane="E_3_0_0" departPos="0.00" departSpeed="10.00" departDelay="1.00" arrival="177.00" arrivalLane="E_0_2_0" arrivalPos="486.40" arrivalSpeed="12.20" duration="108.00" routeLength="987.37" waitingTime="22.00" waitingCount="1" stopTime="0.00" timeLoss="30.35" rerouteNo="0" devices="tripinfo_V4434" vType="CarA" speedFactor="0.93" vaporized=""/>
    <tripinfo id="V4411" depart="19.00" departLane="E_4_0_1" departPos="0.00" departSpeed="10.00" departDelay="0.00" arrival="178.00" arrivalLane="E_0_3_0" arrivalPos="486.40" arrivalSpeed="13.32" duration="159.00" routeLength="1000.22" waitingTime="74.00" waitingCount="1" stopTime="0.00" timeLoss="90.11" rerouteNo="0" devices="tripinfo_V4411" vType="CarA" speedFactor="1.05" vaporized=""/>
    <tripinfo id="V4430" depart="64.00" departLane="E_4_0_0" departPos="0.00" departSpeed="10.00" departDelay="0.00" arrival="179.00" arrivalLane="E_0_1_0" arrivalPos="486.40" arrivalSpeed="11.09" duration="115.00" routeLength="987.37" waitingTime="22.00" waitingCount="1" stopTime="0.00" timeLoss="31.98" rerouteNo="0" devices="tripinfo_V4430" vType="CarA" speedFactor="0.87" vaporized=""/>
    <tripinfo id="V4415" depart="29.00" departLane="E_4_0_1" departPos="0.00" departSpeed="10.00" departDelay="0.00" arrival="180.00" arrivalLane="E_0_3_0" arrivalPos="486.40" arrivalSpeed="14.50" duration="151.00" routeLength="1000.22" waitingTime="69.00" waitingCount="1" stopTime="0.00" timeLoss="84.43" rerouteNo="0" devices="tripinfo_V4415" vType="CarA" speedFactor="1.09" vaporized=""/>
    <tripinfo id="V4438" depart="81.00" departLane="E_4_0_0" departPos="0.00" departSpeed="10.00" departDelay="0.00" arrival="180.00" arrivalLane="E_0_1_0" arrivalPos="486.40" arrivalSpeed="13.65" duration="99.00" routeLength="987.37" waitingTime="18.00" waitingCount="1" stopTime="0.00" timeLoss="37.52" rerouteNo="0" devices="tripinfo_V4438" vType="CarA" speedFactor="1.17" vaporized=""/>
    <tripinfo id="V4450" depart="100.00" departLane="E_4_0_1" departPos="0.00" departSpeed="10.00" departDelay="0.00" arrival="181.00" arrivalLane="E_0_3_0" arrivalPos="486.40" arrivalSpeed="14.31" duration="81.00" routeLength="1000.22" waitingTime="0.00" waitingCount="0" stopTime="0.00" timeLoss="14.73" rerouteNo="0" devices="tripinfo_V4450" vType="CarA" speedFactor="1.09" vaporized=""/>
    <tripinfo id="V4429" depart="63.00" departLane="E_3_0_1" departPos="0.00" departSpeed="10.00" departDelay="0.00" arrival="182.00" arrivalLane="E_0_4_0" arrivalPos="486.40" arrivalSpeed="10.35" duration="119.00" routeLength="1000.22" waitingTime="23.00" waitingCount="1" stopTime="0.00" timeLoss="31.78" rerouteNo="0" devices="tripinfo_V4429" vType="CarA" speedFactor="0.83" vaporized=""/>
    <tripinfo id="V4435" depart="72.00" departLane="E_3_0_1" departPos="0.00" departSpeed="10.00" departDelay="0.00" arrival="184.00" arrivalLane="E_0_4_0" arrivalPos="486.40" arrivalSpeed="14.33" duration="112.00" routeLength="1000.22" waitingTime="21.00" waitingCount="1" stopTime="0.00" timeLoss="50.35" rerouteNo="0" devices="tripinfo_V4435" vType="CarA" speedFactor="1.18" vaporized=""/>
    <tripinfo id="V4439" depart="82.00" departLane="E_3_0_1" departPos="0.00" departSpeed="10.00" departDelay="0.00" arrival="185.00" arrivalLane="E_0_4_0" arrivalPos="486.40" arrivalSpeed="13.33" duration="103.00" routeLength="1000.22" waitingTime="14.00" waitingCount="1" stopTime="0.00" timeLoss="30.57" rerouteNo="0" devices="tripinfo_V4439" vType="CarA" speedFactor="0.99" vaporized=""/>
    <tripinfo id="V4465" depart="131.00" departLane="E_2_0_0" departPos="0.00" departSpeed="10.00" departDelay="0.00" arrival="202.00" arrivalLane="E_0_4_0" arrivalPos="486.40" arrivalSpeed="14.70" duration="71.00" routeLength="987.37" waitingTime="0.00" waitingCount="0" stopTime="0.00" timeLoss="4.53" rerouteNo="0" devices="tripinfo_V4465" vType="CarA" speedFactor="1.08" vaporized=""/>
    <tripinfo id="V4454" depart="113.00" departLane="E_4_0_1" departPos="0.00" departSpeed="10.00" departDelay="0.00" arrival="203.00" arrivalLane="E_0_3_0" arrivalPos="486.40" arrivalSpeed="11.46" duration="90.00" routeLength="1000.22" waitingTime="0.00" waitingCount="0" stopTime="0.00" timeLoss="5.15" rerouteNo="0" devices="tripinfo_V4454" vType="CarA" speedFactor="0.85" vaporized=""/>
    <tripinfo id="V4416" depart="35.00" departLane="E_2_0_1" departPos="0.00" departSpeed="10.00" departDelay="0.00" arrival="205.00" arrivalLane="E_0_1_0" arrivalPos="486.40" arrivalSpeed="14.04" duration="170.00" routeLength="1000.22" waitingTime="91.00" waitingCount="1" stopTime="0.00" timeLoss="99.35" rerouteNo="0" devices="tripinfo_V4416" vType="CarA" speedFactor="1.03" vaporized=""/>
    <tripinfo id="V4456" depart="121.00" departLane="E_4_0_1" departPos="0.00" departSpeed="10.00" departDelay="0.00" arrival="205.00" arrivalLane="E_0_3_0" arrivalPos="486.40" arrivalSpeed="15.79" duration="84.00" routeLength="1000.22" waitingTime="0.00" waitingCount="0" stopTime="0.00" timeLoss="21.61" rerouteNo="0" devices="tripinfo_V4456" vType="CarA" speedFactor="1.17" vaporized=""/>
    <tripinfo id="V4460" depart="127.00" departLane="E_1_0_0" departPos="0.00" departSpeed="10.00" departDelay="0.00" arrival="206.00" arrivalLane="E_0_3_0" arrivalPos="486.40" arrivalSpeed="13.24" duration="79.00" routeLength="987.37" waitingTime="0.00" waitingCount="0" stopTime="0.00" timeLoss="6.70" rerouteNo="0" devices="tripinfo_V4460" vType="CarA" speedFactor="1.00" vaporized=""/>
    <tripinfo id="V4468" depart="133.00" departLane="E_2_0_0" departPos="0.00" departSpeed="10.00" departDelay="0.00" arrival="211.00" arrivalLane="E_0_4_0" arrivalPos="486.40" arrivalSpeed="13.32" duration="78.00" routeLength="987.37" waitingTime="0.00" waitingCount="0" stopTime="0.00" timeLoss="5.03" rerouteNo="0" devices="tripinfo_V4468" vType="CarA" speedFactor="0.99" vaporized=""/>
    <tripinfo id="V4464" depart="131.00" departLane="E_1_0_0" departPos="0.00" departSpeed="10.00" departDelay="0.00" arrival="212.00" arrivalLane="E_0_3_0" arrivalPos="486.40" arrivalSpeed="13.14" duration="81.00" routeLength="987.37" waitingTime="0.00" waitingCount="0" stopTime="0.00" timeLoss="6.16" rerouteNo="0" devices="tripinfo_V4464" vType="CarA" speedFactor="0.97" vaporized=""/>
    <tripinfo id="V4414" depart="29.00" departLane="E_1_0_1" departPos="0.00" departSpeed="10.00" departDelay="0.00" arrival="213.00" arrivalLane="E_0_2_0" arrivalPos="486.40" arrivalSpeed="11.19" duration="184.00" routeLength="1000.22" waitingTime="89.00" waitingCount="1" stopTime="0.00" timeLoss="99.40" rerouteNo="0" devices="tripinfo_V4414" vType="CarA" speedFactor="0.86" vaporized=""/>
    <tripinfo id="V4467" depart="133.00" departLane="E_1_0_0" departPos="0.00" departSpeed="10.00" departDelay="0.00" arrival="213.00" arrivalLane="E_0_3_0" arrivalPos="486.40" arrivalSpeed="13.56" duration="80.00" routeLength="987.37" waitingTime="0.00" waitingCount="0" stopTime="0.00" timeLoss="8.99" rerouteNo="0" devices="tripinfo_V4467" vType="CarA" speedFactor="1.02" vaporized=""/>
    <tripinfo id="V4417" depart="36.00" departLane="E_1_0_1" departPos="0.00" departSpeed="10.00" departDelay="0.00" arrival="214.00" arrivalLane="E_0_2_0" arrivalPos="486.40" arrivalSpeed="12.70" duration="178.00" routeLength="1000.22" waitingTime="89.00" waitingCount="1" stopTime="0.00" timeLoss="109.16" rerouteNo="0" devices="tripinfo_V4417" vType="CarA" speedFactor="1.05" vaporized=""/>
    <tripinfo id="V4455" depart="114.00" departLane="E_2_0_1" departPos="0.00" departSpeed="10.00" departDelay="0.00" arrival="215.00" arrivalLane="E_0_1_0" arrivalPos="486.40" arrivalSpeed="10.90" duration="101.00" routeLength="1000.22" waitingTime="6.00" waitingCount="1" stopTime="0.00" timeLoss="16.12" rerouteNo="0" devices="tripinfo_V4455" vType="CarA" speedFactor="0.85" vaporized=""/>
    <tripinfo id="V4418" depart="42.00" departLane="E_1_0_1" departPos="0.00" departSpeed="10.00" departDelay="0.00" arrival="216.00" arrivalLane="E_0_2_0" arrivalPos="486.40" arrivalSpeed="14.28" duration="174.00" routeLength="1000.22" waitingTime="88.00" waitingCount="1" stopTime="0.00" timeLoss="109.32" rerouteNo="0" devices="tripinfo_V4418" vType="CarA" speedFactor="1.12" vaporized=""/>
    <tripinfo id="V4461" depart="129.00" departLane="E_2_0_1" departPos="0.00" departSpeed="10.00" departDelay="0.00" arrival="216.00" arrivalLane="E_0_1_0" arrivalPos="486.40" arrivalSpeed="11.00" duration="87.00" routeLength="1000.22" waitingTime="0.00" waitingCount="0" stopTime="0.00" timeLoss="6.80" rerouteNo="0" devices="tripinfo_V4461" vType="CarA" speedFactor="0.90" vaporized=""/>
    <tripinfo id="V4436" depart="73.00" departLane="E_1_0_1" departPos="0.00" departSpeed="10.00" departDelay="0.00" arrival="217.00" arrivalLane="E_0_2_0" arrivalPos="486.40" arrivalSpeed="14.68" duration="144.00" routeLength="1000.22" waitingTime="62.00" waitingCount="1" stopTime="0.00" timeLoss="81.44" rerouteNo="0" devices="tripinfo_V4436" vType="CarA" speedFactor="1.15" vaporized=""/>
    <tripinfo id="V4442" depart="88.00" departLane="E_1_0_1" departPos="0.00" departSpeed="10.00" departDelay="0.00" arrival="219.00" arrivalLane="E_0_2_0" arrivalPos="486.40" arrivalSpeed="15.72" duration="131.00" routeLength="1000.22" waitingTime="48.00" waitingCount="1" stopTime="0.00" timeLoss="69.13" rerouteNo="0" devices="tripinfo_V4442" vType="CarA" speedFactor="1.18" vaporized=""/>
    <tripinfo id="V4451" depart="103.00" departLane="E_1_0_1" departPos="0.00" departSpeed="10.00" departDelay="0.00" arrival="220.00" arrivalLane="E_0_2_0" arrivalPos="486.40" arrivalSpeed="13.82" duration="117.00" routeLength="1000.22" waitingTime="28.00" waitingCount="1" stopTime="0.00" timeLoss="44.71" rerouteNo="0" devices="tripinfo_V4451" vType="CarA" speedFactor="1.00" vaporized=""/>
    <tripinfo id="V4466" depart="132.00" departLane="E_1_0_1" departPos="0.00" departSpeed="10.00" departDelay="0.00" arrival="222.00" arrivalLane="E_0_2_0" arrivalPos="486.40" arrivalSpeed="14.09" duration="90.00" routeLength="1000.22" waitingTime="5.00" waitingCount="1" stopTime="0.00" timeLoss="25.11" rerouteNo="0" devices="tripinfo_V4466" vType="CarA" speedFactor="1.12" vaporized=""/>
    <tripinfo id="V4472" depart="143.00" departLane="E_2_0_0" departPos="0.00" departSpeed="10.00" departDelay="0.00" arrival="228.00" arrivalLane="E_0_4_0" arrivalPos="486.40" arrivalSpeed="12.70" duration="85.00" routeLength="987.37" waitingTime="0.00" waitingCount="0" stopTime="0.00" timeLoss="6.18" rerouteNo="0" devices="tripinfo_V4472" vType="CarA" speedFactor="0.91" vaporized=""/>
    <tripinfo id="V4471" depart="143.00" departLane="E_1_0_0" departPos="0.00" departSpeed="10.00" departDelay="0.00" arrival="229.00" arrivalLane="E_0_3_0" arrivalPos="486.40" arrivalSpeed="12.09" duration="86.00" routeLength="987.37" waitingTime="0.00" waitingCount="0" stopTime="0.00" timeLoss="5.92" rerouteNo="0" devices="tripinfo_V4471" vType="CarA" speedFactor="0.91" vaporized=""/>
    <tripinfo id="V4477" depart="147.00" departLane="E_1_0_1" departPos="0.00" departSpeed="10.00" departDelay="0.00" arrival="229.00" arrivalLane="E_0_2_0" arrivalPos="486.40" arrivalSpeed="11.78" duration="82.00" routeLength="1000.22" waitingTime="0.00" waitingCount="0" stopTime="0.00" timeLoss="4.63" rerouteNo="0" devices="tripinfo_V4477" vType="CarA" speedFactor="0.94" vaporized=""/>