<?xml version="1.0" encoding="UTF-8"?>

<!-- generated on 2023-05-20 22:49:32 by Eclipse SUMO GUI Version 1.16.0
<configuration xmlns:xsi="http://www.w3.org/2001/XMLSchema-instance" xsi:noNamespaceSchemaLocation="http://sumo.dlr.de/xsd/sumoConfiguration.xsd">

    <input>
        <net-file value="creators/sumo_files/app.net.xml"/>
        <route-files value="creators/sumo_files/app.rou.xml"/>
        <additional-files value="creators/sumo_files/app.program.xml"/>
    </input>

    <output>
        <tripinfo-output value="app.tripinfo.xml"/>
    </output>

    <time>
        <begin value="0"/>
        <end value="54900"/>
    </time>

    <processing>
        <time-to-teleport value="-1"/>
        <waiting-time-memory value="1000"/>
    </processing>

    <report>
        <verbose value="true"/>
        <no-step-log value="true"/>
    </report>

    <traci_server>
        <remote-port value="62047"/>
    </traci_server>

    <gui_only>
        <quit-on-end value="true"/>
        <start value="true"/>
    </gui_only>

</configuration>
-->

<tripinfos xmlns:xsi="http://www.w3.org/2001/XMLSchema-instance" xsi:noNamespaceSchemaLocation="http://sumo.dlr.de/xsd/tripinfo_file.xsd">
    <tripinfo id="V1420" depart="1.00" departLane="E_2_0_1" departPos="0.00" departSpeed="10.00" departDelay="0.00" arrival="73.00" arrivalLane="E_0_1_0" arrivalPos="480.00" arrivalSpeed="14.37" duration="72.00" routeLength="1000.73" waitingTime="0.00" waitingCount="0" stopTime="0.00" timeLoss="3.44" rerouteNo="0" devices="tripinfo_V1420" vType="CarA" speedFactor="1.06" vaporized=""/>
    <tripinfo id="I6" depart="0.00" departLane="E_1_0_0" departPos="5.10" departSpeed="0.00" departDelay="0.00" arrival="74.00" arrivalLane="E_0_3_0" arrivalPos="480.00" arrivalSpeed="14.21" duration="74.00" routeLength="969.47" waitingTime="0.00" waitingCount="0" stopTime="0.00" timeLoss="6.27" rerouteNo="0" devices="tripinfo_I6" vType="CarA" speedFactor="1.05" vaporized=""/>
    <tripinfo id="I4" depart="5.00" departLane="E_2_0_0" departPos="5.10" departSpeed="0.00" departDelay="5.00" arrival="82.00" arrivalLane="E_0_4_0" arrivalPos="476.80" arrivalSpeed="14.04" duration="77.00" routeLength="966.00" waitingTime="0.00" waitingCount="0" stopTime="0.00" timeLoss="8.10" rerouteNo="0" devices="tripinfo_I4" vType="CarA" speedFactor="1.03" vaporized=""/>
    <tripinfo id="V1432" depart="11.00" departLane="E_2_0_1" departPos="0.00" departSpeed="10.00" departDelay="0.00" arrival="84.00" arrivalLane="E_0_1_1" arrivalPos="480.00" arrivalSpeed="14.00" duration="73.00" routeLength="1000.73" waitingTime="0.00" waitingCount="0" stopTime="0.00" timeLoss="3.75" rerouteNo="0" devices="tripinfo_V1432" vType="CarA" speedFactor="1.05" vaporized=""/>
    <tripinfo id="V1421" depart="3.00" departLane="E_2_0_1" departPos="0.00" departSpeed="10.00" departDelay="2.00" arrival="85.00" arrivalLane="E_0_1_0" arrivalPos="480.00" arrivalSpeed="11.85" duration="82.00" routeLength="1000.73" waitingTime="0.00" waitingCount="0" stopTime="0.00" timeLoss="5.22" rerouteNo="0" devices="tripinfo_V1421" vType="CarA" speedFactor="0.94" vaporized=""/>
    <tripinfo id="V1431" depart="11.00" departLane="E_1_0_0" departPos="0.00" departSpeed="10.00" departDelay="0.00" arrival="86.00" arrivalLane="E_0_3_0" arrivalPos="480.00" arrivalSpeed="12.87" duration="75.00" routeLength="974.57" waitingTime="0.00" waitingCount="0" stopTime="0.00" timeLoss="5.43" rerouteNo="0" devices="tripinfo_V1431" vType="CarA" speedFactor="1.03" vaporized=""/>
    <tripinfo id="I11" depart="10.00" departLane="E_2_0_0" departPos="5.10" departSpeed="0.00" departDelay="10.00" arrival="87.00" arrivalLane="E_0_1_1" arrivalPos="480.00" arrivalSpeed="13.80" duration="77.00" routeLength="995.63" waitingTime="0.00" waitingCount="0" stopTime="0.00" timeLoss="6.43" rerouteNo="0" devices="tripinfo_I11" vType="CarA" speedFactor="1.03" vaporized=""/>
    <tripinfo id="I12" depart="13.00" departLane="E_2_0_0" departPos="5.10" departSpeed="0.00" departDelay="13.00" arrival="88.00" arrivalLane="E_0_4_0" arrivalPos="476.80" arrivalSpeed="13.43" duration="75.00" routeLength="966.00" waitingTime="0.00" waitingCount="0" stopTime="0.00" timeLoss="7.02" rerouteNo="0" devices="tripinfo_I12" vType="CarA" speedFactor="1.05" vaporized=""/>
    <tripinfo id="V1437" depart="14.00" departLane="E_1_0_0" departPos="0.00" departSpeed="10.00" departDelay="0.00" arrival="96.00" arrivalLane="E_0_3_0" arrivalPos="480.00" arrivalSpeed="13.06" duration="82.00" routeLength="974.57" waitingTime="0.00" waitingCount="0" stopTime="0.00" timeLoss="6.10" rerouteNo="0" devices="tripinfo_V1437" vType="CarA" speedFactor="0.94" vaporized=""/>
    <tripinfo id="V1440" depart="16.00" departLane="E_2_0_1" departPos="0.00" departSpeed="10.00" departDelay="0.00" arrival="97.00" arrivalLane="E_0_1_1" arrivalPos="480.00" arrivalSpeed="13.77" duration="81.00" routeLength="1000.73" waitingTime="0.00" waitingCount="0" stopTime="0.00" timeLoss="9.92" rerouteNo="0" devices="tripinfo_V1440" vType="CarA" speedFactor="1.02" vaporized=""/>
    <tripinfo id="I7" depart="7.00" departLane="E_2_0_0" departPos="5.10" departSpeed="0.00" departDelay="7.00" arrival="98.00" arrivalLane="E_0_1_0" arrivalPos="480.00" arrivalSpeed="11.48" duration="91.00" routeLength="995.63" waitingTime="1.00" waitingCount="1" stopTime="0.00" timeLoss="9.24" rerouteNo="0" devices="tripinfo_I7" vType="CarA" speedFactor="0.89" vaporized=""/>
    <tripinfo id="V1425" depart="5.00" departLane="E_1_0_1" departPos="0.00" departSpeed="10.00" departDelay="0.00" arrival="98.00" arrivalLane="E_0_2_0" arrivalPos="476.80" arrivalSpeed="11.11" duration="93.00" routeLength="1001.25" waitingTime="0.00" waitingCount="0" stopTime="0.00" timeLoss="6.05" rerouteNo="0" devices="tripinfo_V1425" vType="CarA" speedFactor="0.83" vaporized=""/>
    <tripinfo id="V1435" depart="13.00" departLane="E_1_0_1" departPos="0.00" departSpeed="10.00" departDelay="0.00" arrival="100.00" arrivalLane="E_0_2_0" arrivalPos="476.80" arrivalSpeed="11.75" duration="87.00" routeLength="1001.25" waitingTime="0.00" waitingCount="0" stopTime="0.00" timeLoss="8.56" rerouteNo="0" devices="tripinfo_V1435" vType="CarA" speedFactor="0.93" vaporized=""/>
    <tripinfo id="V1436" depart="13.00" departLane="E_2_0_1" departPos="0.00" departSpeed="10.00" departDelay="0.00" arrival="101.00" arrivalLane="E_0_1_0" arrivalPos="480.00" arrivalSpeed="11.90" duration="88.00" routeLength="1000.73" waitingTime="0.00" waitingCount="0" stopTime="0.00" timeLoss="5.17" rerouteNo="0" devices="tripinfo_V1436" vType="CarA" speedFactor="0.88" vaporized=""/>
    <tripinfo id="V1463" depart="27.00" departLane="E_2_0_1" departPos="0.00" departSpeed="10.00" departDelay="0.00" arrival="101.00" arrivalLane="E_0_1_1" arrivalPos="480.00" arrivalSpeed="14.15" duration="74.00" routeLength="1000.73" waitingTime="0.00" waitingCount="0" stopTime="0.00" timeLoss="4.53" rerouteNo="0" devices="tripinfo_V1463" vType="CarA" speedFactor="1.04" vaporized=""/>
    <tripinfo id="I13" depart="7.00" departLane="E_4_0_0" departPos="5.10" departSpeed="0.00" departDelay="7.00" arrival="102.00" arrivalLane="E_0_1_2" arrivalPos="480.00" arrivalSpeed="14.91" duration="95.00" routeLength="971.33" waitingTime="20.00" waitingCount="1" stopTime="0.00" timeLoss="31.48" rerouteNo="0" devices="tripinfo_I13" vType="CarA" speedFactor="1.12" vaporized=""/>
    <tripinfo id="V1449" depart="20.00" departLane="E_2_0_1" departPos="0.00" departSpeed="10.00" departDelay="0.00" arrival="103.00" arrivalLane="E_0_1_0" arrivalPos="480.00" arrivalSpeed="11.77" duration="83.00" routeLength="1000.73" waitingTime="0.00" waitingCount="0" stopTime="0.00" timeLoss="4.83" rerouteNo="0" devices="tripinfo_V1449" vType="CarA" speedFactor="0.93" vaporized=""/>
    <tripinfo id="V1451" depart="22.00" departLane="E_2_0_1" departPos="0.00" departSpeed="10.00" departDelay="1.00" arrival="103.00" arrivalLane="E_0_1_1" arrivalPos="480.00" arrivalSpeed="15.05" duration="81.00" routeLength="1000.73" waitingTime="0.00" waitingCount="0" stopTime="0.00" timeLoss="18.05" rerouteNo="0" devices="tripinfo_V1451" vType="CarA" speedFactor="1.15" vaporized=""/>
    <tripinfo id="I3" depart="0.00" departLane="E_4_0_0" departPos="5.10" departSpeed="0.00" departDelay="0.00" arrival="104.00" arrivalLane="E_0_1_0" arrivalPos="480.00" arrivalSpeed="14.02" duration="104.00" routeLength="960.73" waitingTime="28.00" waitingCount="1" stopTime="0.00" timeLoss="39.33" rerouteNo="0" devices="tripinfo_I3" vType="CarA" speedFactor="1.08" vaporized=""/>
    <tripinfo id="I10" depart="2.00" departLane="E_1_0_0" departPos="5.10" departSpeed="0.00" departDelay="2.00" arrival="104.00" arrivalLane="E_0_4_1" arrivalPos="476.80" arrivalSpeed="14.00" duration="102.00" routeLength="995.17" waitingTime="25.00" waitingCount="1" stopTime="0.00" timeLoss="35.91" rerouteNo="0" devices="tripinfo_I10" vType="CarA" speedFactor="1.09" vaporized=""/>
    <tripinfo id="I16" depart="15.00" departLane="E_2_0_0" departPos="5.10" departSpeed="0.00" departDelay="15.00" arrival="104.00" arrivalLane="E_0_4_0" arrivalPos="476.80" arrivalSpeed="11.00" duration="89.00" routeLength="966.00" waitingTime="0.00" waitingCount="0" stopTime="0.00" timeLoss="8.13" rerouteNo="0" devices="tripinfo_I16" vType="CarA" speedFactor="0.88" vaporized=""/>
    <tripinfo id="V1453" depart="22.00" departLane="E_1_0_3" departPos="0.00" departSpeed="10.00" departDelay="0.00" arrival="104.00" arrivalLane="E_0_4_2" arrivalPos="476.80" arrivalSpeed="15.16" duration="82.00" routeLength="1000.27" waitingTime="10.00" waitingCount="1" stopTime="0.00" timeLoss="19.82" rerouteNo="0" devices="tripinfo_V1453" vType="CarA" speedFactor="1.17" vaporized=""/>
    <tripinfo id="V1423" depart="2.00" departLane="E_1_0_2" departPos="0.00" departSpeed="10.00" departDelay="0.00" arrival="105.00" arrivalLane="E_0_4_0" arrivalPos="476.80" arrivalSpeed="13.60" duration="103.00" routeLength="1006.98" waitingTime="27.00" waitingCount="1" stopTime="0.00" timeLoss="35.87" rerouteNo="0" devices="tripinfo_V1423" vType="CarA" speedFactor="1.08" vaporized=""/>
    <tripinfo id="I19" depart="14.00" departLane="E_4_0_0" departPos="5.10" departSpeed="0.00" departDelay="14.00" arrival="106.00" arrivalLane="E_0_1_2" arrivalPos="480.00" arrivalSpeed="15.90" duration="92.00" routeLength="971.33" waitingTime="15.00" waitingCount="1" stopTime="0.00" timeLoss="30.38" rerouteNo="0" devices="tripinfo_I19" vType="CarA" speedFactor="1.16" vaporized=""/>
    <tripinfo id="V1422" depart="1.00" departLane="E_2_0_2" departPos="0.00" departSpeed="10.00" departDelay="0.00" arrival="107.00" arrivalLane="E_0_3_0" arrivalPos="480.00" arrivalSpeed="13.70" duration="106.00" routeLength="996.16" waitingTime="26.00" waitingCount="1" stopTime="0.00" timeLoss="34.55" rerouteNo="0" devices="tripinfo_V1422" vType="CarA" speedFactor="1.01" vaporized=""/>
    <tripinfo id="V1448" depart="20.00" departLane="E_1_0_2" departPos="0.00" departSpeed="10.00" departDelay="0.00" arrival="107.00" arrivalLane="E_0_4_1" arrivalPos="476.80" arrivalSpeed="14.45" duration="87.00" routeLength="1006.98" waitingTime="13.00" waitingCount="1" stopTime="0.00" timeLoss="22.72" rerouteNo="0" devices="tripinfo_V1448" vType="CarA" speedFactor="1.13" vaporized=""/>
    <tripinfo id="V1450" depart="20.00" departLane="E_4_0_1" departPos="0.00" departSpeed="10.00" departDelay="0.00" arrival="107.00" arrivalLane="E_0_1_3" arrivalPos="480.00" arrivalSpeed="16.36" duration="87.00" routeLength="976.43" waitingTime="14.00" waitingCount="1" stopTime="0.00" timeLoss="26.39" rerouteNo="0" devices="tripinfo_V1450" vType="CarA" speedFactor="1.18" vaporized=""/>
    <tripinfo id="I0" depart="0.00" departLane="E_2_0_0" departPos="5.10" departSpeed="0.00" departDelay="0.00" arrival="108.00" arrivalLane="E_0_3_1" arrivalPos="480.00" arrivalSpeed="14.54" duration="108.00" routeLength="991.06" waitingTime="24.00" waitingCount="1" stopTime="0.00" timeLoss="39.72" rerouteNo="0" devices="tripinfo_I0" vType="CarA" speedFactor="1.06" vaporized=""/>
    <tripinfo id="I14" depart="9.00" departLane="E_4_0_0" departPos="5.10" departSpeed="0.00" departDelay="9.00" arrival="108.00" arrivalLane="E_0_1_1" arrivalPos="480.00" arrivalSpeed="12.39" duration="99.00" routeLength="971.33" waitingTime="16.00" waitingCount="1" stopTime="0.00" timeLoss="27.56" rerouteNo="0" devices="tripinfo_I14" vType="CarA" speedFactor="0.99" vaporized=""/>
    <tripinfo id="V1426" depart="6.00" departLane="E_1_0_2" departPos="0.00" departSpeed="10.00" departDelay="0.00" arrival="108.00" arrivalLane="E_0_4_0" arrivalPos="476.80" arrivalSpeed="13.25" duration="102.00" routeLength="1006.98" waitingTime="22.00" waitingCount="1" stopTime="0.00" timeLoss="32.30" rerouteNo="0" devices="tripinfo_V1426" vType="CarA" speedFactor="1.05" vaporized=""/>
    <tripinfo id="I15" depart="4.00" departLane="E_1_0_0" departPos="5.10" departSpeed="0.00" departDelay="4.00" arrival="111.00" arrivalLane="E_0_4_1" arrivalPos="476.80" arrivalSpeed="11.60" duration="107.00" routeLength="988.54" waitingTime="15.00" waitingCount="1" stopTime="0.00" timeLoss="29.25" rerouteNo="0" devices="tripinfo_I15" vType="CarA" speedFactor="0.93" vaporized=""/>
    <tripinfo id="V1427" depart="8.00" departLane="E_3_0_0" departPos="0.00" departSpeed="10.00" departDelay="2.00" arrival="111.00" arrivalLane="E_0_2_0" arrivalPos="476.80" arrivalSpeed="11.45" duration="103.00" routeLength="983.94" waitingTime="12.00" waitingCount="1" stopTime="0.00" timeLoss="22.17" rerouteNo="0" devices="tripinfo_V1427" vType="CarA" speedFactor="0.89" vaporized=""/>
    <tripinfo id="V1430" depart="8.00" departLane="E_2_0_2" departPos="0.00" departSpeed="10.00" departDelay="0.00" arrival="111.00" arrivalLane="E_0_3_1" arrivalPos="480.00" arrivalSpeed="14.77" duration="103.00" routeLength="996.16" waitingTime="20.00" waitingCount="1" stopTime="0.00" timeLoss="36.86" rerouteNo="0" devices="tripinfo_V1430" vType="CarA" speedFactor="1.09" vaporized=""/>
    <tripinfo id="V1456" depart="25.00" departLane="E_1_0_2" departPos="0.00" departSpeed="10.00" departDelay="0.00" arrival="111.00" arrivalLane="E_0_4_3" arrivalPos="476.80" arrivalSpeed="12.25" duration="86.00" routeLength="993.64" waitingTime="1.00" waitingCount="1" stopTime="0.00" timeLoss="11.37" rerouteNo="0" devices="tripinfo_V1456" vType="CarA" speedFactor="0.97" vaporized=""/>
    <tripinfo id="V1434" depart="13.00" departLane="E_3_0_0" departPos="0.00" departSpeed="10.00" departDelay="1.00" arrival="113.00" arrivalLane="E_0_2_0" arrivalPos="476.80" arrivalSpeed="12.78" duration="100.00" routeLength="983.94" waitingTime="12.00" waitingCount="1" stopTime="0.00" timeLoss="27.21" rerouteNo="0" devices="tripinfo_V1434" vType="CarA" speedFactor="0.99" vaporized=""/>
    <tripinfo id="V1452" depart="21.00" departLane="E_4_0_0" departPos="0.00" departSpeed="10.00" departDelay="0.00" arrival="113.00" arrivalLane="E_0_1_1" arrivalPos="480.00" arrivalSpeed="12.71" duration="92.00" routeLength="976.43" waitingTime="11.00" waitingCount="1" stopTime="0.00" timeLoss="21.10" rerouteNo="0" devices="tripinfo_V1452" vType="CarA" speedFactor="1.01" vaporized=""/>
    <tripinfo id="I1" depart="2.00" departLane="E_2_0_0" departPos="5.10" departSpeed="0.00" departDelay="2.00" arrival="114.00" arrivalLane="E_0_3_0" arrivalPos="480.00" arrivalSpeed="11.73" duration="112.00" routeLength="991.06" waitingTime="21.00" waitingCount="1" stopTime="0.00" timeLoss="35.50" rerouteNo="0" devices="tripinfo_I1" vType="CarA" speedFactor="0.94" vaporized=""/>
    <tripinfo id="I18" depart="12.00" departLane="E_4_0_0" departPos="5.10" departSpeed="0.00" departDelay="12.00" arrival="115.00" arrivalLane="E_0_1_1" arrivalPos="480.00" arrivalSpeed="12.47" duration="103.00" routeLength="960.73" waitingTime="13.00" waitingCount="1" stopTime="0.00" timeLoss="28.19" rerouteNo="0" devices="tripinfo_I18" vType="CarA" speedFactor="0.94" vaporized=""/>
    <tripinfo id="V1454" depart="22.00" departLane="E_2_0_2" departPos="0.00" departSpeed="10.00" departDelay="0.00" arrival="115.00" arrivalLane="E_0_3_1" arrivalPos="480.00" arrivalSpeed="13.28" duration="93.00" routeLength="996.16" waitingTime="9.00" waitingCount="1" stopTime="0.00" timeLoss="20.71" rerouteNo="0" devices="tripinfo_V1454" vType="CarA" speedFactor="0.99" vaporized=""/>
    <tripinfo id="I5" depart="2.00" departLane="E_4_0_0" departPos="5.10" departSpeed="0.00" departDelay="2.00" arrival="116.00" arrivalLane="E_0_1_0" arrivalPos="480.00" arrivalSpeed="10.82" duration="114.00" routeLength="960.73" waitingTime="16.00" waitingCount="1" stopTime="0.00" timeLoss="29.53" rerouteNo="0" devices="tripinfo_I5" vType="CarA" speedFactor="0.83" vaporized=""/>
    <tripinfo id="V1429" depart="10.00" departLane="E_3_0_0" departPos="0.00" departSpeed="10.00" departDelay="3.00" arrival="117.00" arrivalLane="E_0_2_0" arrivalPos="476.80" arrivalSpeed="11.16" duration="107.00" routeLength="983.94" waitingTime="11.00" waitingCount="1" stopTime="0.00" timeLoss="22.97" rerouteNo="0" devices="tripinfo_V1429" vType="CarA" speedFactor="0.86" vaporized=""/>
    <tripinfo id="I9" depart="4.00" departLane="E_4_0_0" departPos="5.10" departSpeed="0.00" departDelay="4.00" arrival="118.00" arrivalLane="E_0_1_0" arrivalPos="480.00" arrivalSpeed="11.50" duration="114.00" routeLength="960.73" waitingTime="15.00" waitingCount="1" stopTime="0.00" timeLoss="31.68" rerouteNo="0" devices="tripinfo_I9" vType="CarA" speedFactor="0.86" vaporized=""/>
    <tripinfo id="V1433" depart="12.00" departLane="E_3_0_0" departPos="0.00" departSpeed="10.00" departDelay="1.00" arrival="118.00" arrivalLane="E_0_2_0" arrivalPos="476.80" arrivalSpeed="14.36" duration="106.00" routeLength="983.94" waitingTime="9.00" waitingCount="1" stopTime="0.00" timeLoss="42.06" rerouteNo="0" devices="tripinfo_V1433" vType="CarA" speedFactor="1.12" vaporized=""/>
    <tripinfo id="V1442" depart="17.00" departLane="E_3_0_0" departPos="0.00" departSpeed="10.00" departDelay="0.00" arrival="120.00" arrivalLane="E_0_2_0" arrivalPos="476.80" arrivalSpeed="13.30" duration="103.00" routeLength="983.94" waitingTime="10.00" waitingCount="1" stopTime="0.00" timeLoss="28.96" rerouteNo="0" devices="tripinfo_V1442" vType="CarA" speedFactor="0.97" vaporized=""/>
    <tripinfo id="V1445" depart="18.00" departLane="E_3_0_0" departPos="0.00" departSpeed="10.00" departDelay="0.00" arrival="122.00" arrivalLane="E_0_2_0" arrivalPos="476.80" arrivalSpeed="10.87" duration="104.00" routeLength="983.94" waitingTime="10.00" waitingCount="1" stopTime="0.00" timeLoss="21.88" rerouteNo="0" devices="tripinfo_V1445" vType="CarA" speedFactor="0.87" vaporized=""/>
    <tripinfo id="V1455" depart="22.00" departLane="E_3_0_0" departPos="0.00" departSpeed="10.00" departDelay="0.00" arrival="123.00" arrivalLane="E_0_2_0" arrivalPos="476.80" arrivalSpeed="13.02" duration="101.00" routeLength="983.94" waitingTime="9.00" waitingCount="1" stopTime="0.00" timeLoss="31.01" rerouteNo="0" devices="tripinfo_V1455" vType="CarA" speedFactor="1.02" vaporized=""/>
    <tripinfo id="V1488" depart="51.00" departLane="E_4_0_1" departPos="0.00" departSpeed="10.00" departDelay="0.00" arrival="124.00" arrivalLane="E_0_1_0" arrivalPos="480.00" arrivalSpeed="13.07" duration="73.00" routeLength="965.83" waitingTime="0.00" waitingCount="0" stopTime="0.00" timeLoss="5.27" rerouteNo="0" devices="tripinfo_V1488" vType="CarA" speedFactor="1.04" vaporized=""/>
    <tripinfo id="V1457" depart="25.00" departLane="E_3_0_0" departPos="0.00" departSpeed="10.00" departDelay="0.00" arrival="125.00" arrivalLane="E_0_2_0" arrivalPos="476.80" arrivalSpeed="15.54" duration="100.00" routeLength="983.94" waitingTime="7.00" waitingCount="1" stopTime="0.00" timeLoss="38.97" rerouteNo="0" devices="tripinfo_V1457" vType="CarA" speedFactor="1.18" vaporized=""/>
    <tripinfo id="V1465" depart="27.00" departLane="E_3_0_0" departPos="0.00" departSpeed="10.00" departDelay="0.00" arrival="126.00" arrivalLane="E_0_2_0" arrivalPos="476.80" arrivalSpeed="14.46" duration="99.00" routeLength="983.94" waitingTime="7.00" waitingCount="1" stopTime="0.00" timeLoss="33.37" rerouteNo="0" devices="tripinfo_V1465" vType="CarA" speedFactor="1.09" vaporized=""/>
    <tripinfo id="V1467" depart="28.00" departLane="E_3_0_0" departPos="0.00" departSpeed="10.00" departDelay="0.00" arrival="129.00" arrivalLane="E_0_2_0" arrivalPos="476.80" arrivalSpeed="11.81" duration="101.00" routeLength="983.94" waitingTime="6.00" waitingCount="1" stopTime="0.00" timeLoss="20.84" rerouteNo="0" devices="tripinfo_V1467" vType="CarA" speedFactor="0.90" vaporized=""/>
    <tripinfo id="V1468" depart="30.00" departLane="E_3_0_0" departPos="0.00" departSpeed="10.00" departDelay="1.00" arrival="130.00" arrivalLane="E_0_2_0" arrivalPos="476.80" arrivalSpeed="11.40" duration="100.00" routeLength="983.94" waitingTime="5.00" waitingCount="1" stopTime="0.00" timeLoss="18.21" rerouteNo="0" devices="tripinfo_V1468" vType="CarA" speedFactor="0.88" vaporized=""/>
    <tripinfo id="V1474" depart="37.00" departLane="E_3_0_0" departPos="0.00" departSpeed="10.00" departDelay="0.00" arrival="132.00" arrivalLane="E_0_2_0" arrivalPos="476.80" arrivalSpeed="12.91" duration="95.00" routeLength="983.94" waitingTime="4.00" waitingCount="1" stopTime="0.00" timeLoss="22.98" rerouteNo="0" devices="tripinfo_V1474" vType="CarA" speedFactor="1.00" vaporized=""/>
    <tripinfo id="V1477" depart="44.00" departLane="E_3_0_0" departPos="0.00" departSpeed="10.00" departDelay="0.00" arrival="133.00" arrivalLane="E_0_2_0" arrivalPos="476.80" arrivalSpeed="14.91" duration="89.00" routeLength="983.94" waitingTime="1.00" waitingCount="1" stopTime="0.00" timeLoss="26.00" rerouteNo="0" devices="tripinfo_V1477" vType="CarA" speedFactor="1.14" vaporized=""/>
    <tripinfo id="V1484" depart="51.00" departLane="E_1_0_4" departPos="0.00" departSpeed="10.00" departDelay="0.00" arrival="133.00" arrivalLane="E_0_4_0" arrivalPos="476.80" arrivalSpeed="12.71" duration="82.00" routeLength="1006.98" waitingTime="0.00" waitingCount="0" stopTime="0.00" timeLoss="4.62" rerouteNo="0" devices="tripinfo_V1484" vType="CarA" speedFactor="0.94" vaporized=""/>
    <tripinfo id="V1478" depart="48.00" departLane="E_3_0_0" departPos="0.00" departSpeed="10.00" departDelay="0.00" arrival="134.00" arrivalLane="E_0_2_0" arrivalPos="476.80" arrivalSpeed="13.99" duration="86.00" routeLength="983.94" waitingTime="0.00" waitingCount="0" stopTime="0.00" timeLoss="16.17" rerouteNo="0" devices="tripinfo_V1478" vType="CarA" speedFactor="1.02" vaporized=""/>
    <tripinfo id="V1491" depart="55.00" departLane="E_1_0_4" departPos="0.00" departSpeed="10.00" departDelay="0.00" arrival="135.00" arrivalLane="E_0_4_1" arrivalPos="476.80" arrivalSpeed="12.76" duration="80.00" routeLength="1006.98" waitingTime="0.00" waitingCount="0" stopTime="0.00" timeLoss="4.97" rerouteNo="0" devices="tripinfo_V1491" vType="CarA" speedFactor="0.97" vaporized=""/>
    <tripinfo id="V1496" depart="59.00" departLane="E_3_0_0" departPos="0.00" departSpeed="10.00" departDelay="0.00" arrival="136.00" arrivalLane="E_0_2_0" arrivalPos="476.80" arrivalSpeed="13.54" duration="77.00" routeLength="983.94" waitingTime="0.00" waitingCount="0" stopTime="0.00" timeLoss="7.44" rerouteNo="0" devices="tripinfo_V1496" vType="CarA" speedFactor="1.03" vaporized=""/>
    <tripinfo id="V1473" depart="37.00" departLane="E_1_0_0" departPos="0.00" departSpeed="10.00" departDelay="0.00" arrival="138.00" arrivalLane="E_0_3_0" arrivalPos="480.00" arrivalSpeed="13.78" duration="101.00" routeLength="974.57" waitingTime="28.00" waitingCount="1" stopTime="0.00" timeLoss="35.63" rerouteNo="0" devices="tripinfo_V1473" vType="CarA" speedFactor="1.10" vaporized=""/>
    <tripinfo id="V1424" depart="2.00" departLane="E_3_0_2" departPos="0.00" departSpeed="10.00" departDelay="0.00" arrival="140.00" arrivalLane="E_0_1_0" arrivalPos="480.00" arrivalSpeed="13.51" duration="138.00" routeLength="1008.43" waitingTime="59.00" waitingCount="1" stopTime="0.00" timeLoss="67.21" rerouteNo="0" devices="tripinfo_V1424" vType="CarA" speedFactor="1.03" vaporized=""/>
    <tripinfo id="I2" depart="0.00" departLane="E_3_0_0" departPos="5.10" departSpeed="0.00" departDelay="0.00" arrival="143.00" arrivalLane="E_0_1_0" arrivalPos="480.00" arrivalSpeed="13.75" duration="143.00" routeLength="1003.33" waitingTime="58.00" waitingCount="1" stopTime="0.00" timeLoss="71.02" rerouteNo="0" devices="tripinfo_I2" vType="CarA" speedFactor="1.01" vaporized=""/>
    <tripinfo id="V1439" depart="15.00" departLane="E_3_0_2" departPos="0.00" departSpeed="10.00" departDelay="0.00" arrival="143.00" arrivalLane="E_0_1_1" arrivalPos="480.00" arrivalSpeed="15.17" duration="128.00" routeLength="1008.43" waitingTime="54.00" waitingCount="1" stopTime="0.00" timeLoss="65.00" rerouteNo="0" devices="tripinfo_V1439" vType="CarA" speedFactor="1.16" vaporized=""/>
    <tripinfo id="V1475" depart="40.00" departLane="E_1_0_0" departPos="0.00" departSpeed="10.00" departDelay="0.00" arrival="143.00" arrivalLane="E_0_3_0" arrivalPos="480.00" arrivalSpeed="13.47" duration="103.00" routeLength="974.57" waitingTime="21.00" waitingCount="1" stopTime="0.00" timeLoss="31.56" rerouteNo="0" devices="tripinfo_V1475" vType="CarA" speedFactor="1.00" vaporized=""/>
    <tripinfo id="V1444" depart="18.00" departLane="E_1_0_0" departPos="0.00" departSpeed="10.00" departDelay="0.00" arrival="147.00" arrivalLane="E_0_3_0" arrivalPos="480.00" arrivalSpeed="10.03" duration="129.00" routeLength="974.57" waitingTime="34.00" waitingCount="1" stopTime="0.00" timeLoss="43.18" rerouteNo="0" devices="tripinfo_V1444" vType="CarA" speedFactor="0.83" vaporized=""/>
    <tripinfo id="I8" depart="2.00" departLane="E_3_0_0" departPos="5.10" departSpeed="0.00" departDelay="2.00" arrival="148.00" arrivalLane="E_0_1_0" arrivalPos="480.00" arrivalSpeed="11.91" duration="146.00" routeLength="1003.33" waitingTime="55.00" waitingCount="1" stopTime="0.00" timeLoss="68.30" rerouteNo="0" devices="tripinfo_I8" vType="CarA" speedFactor="0.94" vaporized=""/>
    <tripinfo id="V1505" depart="69.00" departLane="E_1_0_0" departPos="0.00" departSpeed="10.00" departDelay="0.00" arrival="148.00" arrivalLane="E_0_3_1" arrivalPos="480.00" arrivalSpeed="12.78" duration="79.00" routeLength="974.57" waitingTime="0.00" waitingCount="0" stopTime="0.00" timeLoss="5.41" rerouteNo="0" devices="tripinfo_V1505" vType="CarA" speedFactor="0.98" vaporized=""/>
    <tripinfo id="V1506" depart="71.00" departLane="E_1_0_0" departPos="0.00" departSpeed="10.00" departDelay="2.00" arrival="149.00" arrivalLane="E_0_3_1" arrivalPos="480.00" arrivalSpeed="13.39" duration="78.00" routeLength="974.57" waitingTime="0.00" waitingCount="0" stopTime="0.00" timeLoss="6.86" rerouteNo="0" devices="tripinfo_V1506" vType="CarA" speedFactor="1.00" vaporized=""/>
    <tripinfo id="V1428" depart="6.00" departLane="E_3_0_2" departPos="0.00" departSpeed="10.00" departDelay="0.00" arrival="150.00" arrivalLane="E_0_1_0" arrivalPos="480.00" arrivalSpeed="12.11" duration="144.00" routeLength="1008.43" waitingTime="54.00" waitingCount="1" stopTime="0.00" timeLoss="65.69" rerouteNo="0" devices="tripinfo_V1428" vType="CarA" speedFactor="0.94" vaporized=""/>
    <tripinfo id="V1462" depart="26.00" departLane="E_3_0_2" departPos="0.00" departSpeed="10.00" departDelay="0.00" arrival="150.00" arrivalLane="E_0_1_1" arrivalPos="480.00" arrivalSpeed="14.50" duration="124.00" routeLength="1008.43" waitingTime="43.00" waitingCount="1" stopTime="0.00" timeLoss="57.47" rerouteNo="0" devices="tripinfo_V1462" vType="CarA" speedFactor="1.09" vaporized=""/>
    <tripinfo id="V1471" depart="34.00" departLane="E_3_0_2" departPos="0.00" departSpeed="10.00" departDelay="0.00" arrival="150.00" arrivalLane="E_0_1_2" arrivalPos="480.00" arrivalSpeed="15.87" duration="116.00" routeLength="1008.43" waitingTime="41.00" waitingCount="1" stopTime="0.00" timeLoss="53.60" rerouteNo="0" devices="tripinfo_V1471" vType="CarA" speedFactor="1.17" vaporized=""/>
    <tripinfo id="V1443" depart="17.00" departLane="E_3_0_2" departPos="0.00" departSpeed="10.00" departDelay="0.00" arrival="155.00" arrivalLane="E_0_1_0" arrivalPos="480.00" arrivalSpeed="11.34" duration="138.00" routeLength="1008.43" waitingTime="44.00" waitingCount="1" stopTime="0.00" timeLoss="55.73" rerouteNo="0" devices="tripinfo_V1443" vType="CarA" speedFactor="0.89" vaporized=""/>
    <tripinfo id="V1447" depart="19.00" departLane="E_3_0_2" departPos="0.00" departSpeed="10.00" departDelay="0.00" arrival="155.00" arrivalLane="E_0_1_1" arrivalPos="480.00" arrivalSpeed="12.49" duration="136.00" routeLength="1008.43" waitingTime="44.00" waitingCount="1" stopTime="0.00" timeLoss="59.00" rerouteNo="0" devices="tripinfo_V1447" vType="CarA" speedFactor="0.95" vaporized=""/>
    <tripinfo id="V1482" depart="49.00" departLane="E_3_0_2" departPos="0.00" departSpeed="10.00" departDelay="0.00" arrival="156.00" arrivalLane="E_0_1_0" arrivalPos="480.00" arrivalSpeed="13.31" duration="107.00" routeLength="1008.43" waitingTime="22.00" waitingCount="1" stopTime="0.00" timeLoss="35.34" rerouteNo="0" devices="tripinfo_V1482" vType="CarA" speedFactor="1.02" vaporized=""/>
    <tripinfo id="V1516" depart="80.00" departLane="E_1_0_0" departPos="0.00" departSpeed="10.00" departDelay="0.00" arrival="158.00" arrivalLane="E_0_3_0" arrivalPos="480.00" arrivalSpeed="13.21" duration="78.00" routeLength="974.57" waitingTime="0.00" waitingCount="0" stopTime="0.00" timeLoss="7.31" rerouteNo="0" devices="tripinfo_V1516" vType="CarA" speedFactor="1.01" vaporized=""/>
    <tripinfo id="V1490" depart="53.00" departLane="E_3_0_2" departPos="0.00" departSpeed="10.00" departDelay="0.00" arrival="159.00" arrivalLane="E_0_1_1" arrivalPos="480.00" arrivalSpeed="13.83" duration="106.00" routeLength="1008.43" waitingTime="20.00" waitingCount="1" stopTime="0.00" timeLoss="34.67" rerouteNo="0" devices="tripinfo_V1490" vType="CarA" speedFactor="1.02" vaporized=""/>