<?xml version="1.0" encoding="UTF-8"?>

<!-- generated on 2023-05-21 14:06:51 by Eclipse SUMO sumo Version 1.16.0
<configuration xmlns:xsi="http://www.w3.org/2001/XMLSchema-instance" xsi:noNamespaceSchemaLocation="http://sumo.dlr.de/xsd/sumoConfiguration.xsd">

    <input>
        <net-file value="creators/sumo_files/app.net.xml"/>
        <route-files value="creators/sumo_files/app.rou.xml"/>
        <additional-files value="creators/sumo_files/app.program.xml"/>
    </input>

    <output>
        <tripinfo-output value="app.tripinfo.xml"/>
    </output>

    <time>
        <begin value="0"/>
        <end value="54900"/>
    </time>

    <processing>
        <time-to-teleport value="-1"/>
        <waiting-time-memory value="1000"/>
    </processing>

    <report>
        <verbose value="true"/>
        <no-step-log value="true"/>
    </report>

    <traci_server>
        <remote-port value="52920"/>
    </traci_server>

    <gui_only>
        <quit-on-end value="true"/>
        <start value="true"/>
    </gui_only>

</configuration>
-->

<tripinfos xmlns:xsi="http://www.w3.org/2001/XMLSchema-instance" xsi:noNamespaceSchemaLocation="http://sumo.dlr.de/xsd/tripinfo_file.xsd">
    <tripinfo id="I3" depart="0.00" departLane="E_1_0_0" departPos="5.10" departSpeed="0.00" departDelay="0.00" arrival="72.00" arrivalLane="E_0_3_0" arrivalPos="476.80" arrivalSpeed="14.30" duration="72.00" routeLength="966.27" waitingTime="0.00" waitingCount="0" stopTime="0.00" timeLoss="6.77" rerouteNo="0" devices="tripinfo_I3" vType="CarA" speedFactor="1.08" vaporized=""/>
    <tripinfo id="I14" depart="5.00" departLane="E_1_0_0" departPos="5.10" departSpeed="0.00" departDelay="5.00" arrival="85.00" arrivalLane="E_0_3_0" arrivalPos="476.80" arrivalSpeed="13.64" duration="80.00" routeLength="966.27" waitingTime="0.00" waitingCount="0" stopTime="0.00" timeLoss="8.60" rerouteNo="0" devices="tripinfo_I14" vType="CarA" speedFactor="0.99" vaporized=""/>
    <tripinfo id="I8" depart="2.00" departLane="E_2_0_0" departPos="5.10" departSpeed="0.00" departDelay="2.00" arrival="86.00" arrivalLane="E_0_4_0" arrivalPos="476.80" arrivalSpeed="12.99" duration="84.00" routeLength="967.13" waitingTime="0.00" waitingCount="0" stopTime="0.00" timeLoss="7.77" rerouteNo="0" devices="tripinfo_I8" vType="CarA" speedFactor="0.94" vaporized=""/>
    <tripinfo id="I5" depart="0.00" departLane="E_2_0_0" departPos="5.10" departSpeed="0.00" departDelay="0.00" arrival="94.00" arrivalLane="E_0_1_0" arrivalPos="480.00" arrivalSpeed="10.48" duration="94.00" routeLength="995.63" waitingTime="0.00" waitingCount="0" stopTime="0.00" timeLoss="7.60" rerouteNo="0" devices="tripinfo_I5" vType="CarA" speedFactor="0.83" vaporized=""/>
    <tripinfo id="V8" depart="11.00" departLane="E_2_0_1" departPos="0.00" departSpeed="10.00" departDelay="0.00" arrival="94.00" arrivalLane="E_0_4_0" arrivalPos="476.80" arrivalSpeed="12.97" duration="83.00" routeLength="972.23" waitingTime="0.00" waitingCount="0" stopTime="0.00" timeLoss="7.72" rerouteNo="0" devices="tripinfo_V8" vType="CarA" speedFactor="0.94" vaporized=""/>
    <tripinfo id="I18" depart="11.00" departLane="E_2_0_0" departPos="5.10" departSpeed="0.00" departDelay="11.00" arrival="96.00" arrivalLane="E_0_4_1" arrivalPos="476.80" arrivalSpeed="12.88" duration="85.00" routeLength="974.95" waitingTime="0.00" waitingCount="0" stopTime="0.00" timeLoss="8.74" rerouteNo="0" devices="tripinfo_I18" vType="CarA" speedFactor="0.94" vaporized=""/>
    <tripinfo id="V10" depart="12.00" departLane="E_2_0_5" departPos="0.00" departSpeed="10.00" departDelay="0.00" arrival="104.00" arrivalLane="E_0_3_1" arrivalPos="476.80" arrivalSpeed="14.59" duration="92.00" routeLength="993.84" waitingTime="17.00" waitingCount="1" stopTime="0.00" timeLoss="25.35" rerouteNo="0" devices="tripinfo_V10" vType="CarA" speedFactor="1.09" vaporized=""/>
    <tripinfo id="I13" depart="9.00" departLane="E_2_0_0" departPos="5.10" departSpeed="0.00" departDelay="9.00" arrival="105.00" arrivalLane="E_0_3_2" arrivalPos="476.80" arrivalSpeed="14.68" duration="96.00" routeLength="988.74" waitingTime="16.00" waitingCount="1" stopTime="0.00" timeLoss="31.69" rerouteNo="0" devices="tripinfo_I13" vType="CarA" speedFactor="1.12" vaporized=""/>
    <tripinfo id="V11" depart="15.00" departLane="E_3_0_0" departPos="0.00" departSpeed="10.00" departDelay="0.00" arrival="105.00" arrivalLane="E_0_2_0" arrivalPos="486.40" arrivalSpeed="13.47" duration="90.00" routeLength="986.70" waitingTime="11.00" waitingCount="1" stopTime="0.00" timeLoss="20.12" rerouteNo="0" devices="tripinfo_V11" vType="CarA" speedFactor="1.03" vaporized=""/>
    <tripinfo id="V13" depart="16.00" departLane="E_1_0_4" departPos="0.00" departSpeed="10.00" departDelay="0.00" arrival="105.00" arrivalLane="E_0_4_2" arrivalPos="476.80" arrivalSpeed="14.83" duration="89.00" routeLength="991.51" waitingTime="15.00" waitingCount="1" stopTime="0.00" timeLoss="25.09" rerouteNo="0" devices="tripinfo_V13" vType="CarA" speedFactor="1.12" vaporized=""/>
    <tripinfo id="I4" depart="2.00" departLane="E_1_0_0" departPos="5.10" departSpeed="0.00" departDelay="2.00" arrival="106.00" arrivalLane="E_0_4_1" arrivalPos="476.80" arrivalSpeed="13.29" duration="104.00" routeLength="986.41" waitingTime="22.00" waitingCount="1" stopTime="0.00" timeLoss="34.04" rerouteNo="0" devices="tripinfo_I4" vType="CarA" speedFactor="1.03" vaporized=""/>
    <tripinfo id="I6" depart="5.00" departLane="E_4_0_0" departPos="5.10" departSpeed="0.00" departDelay="5.00" arrival="106.00" arrivalLane="E_0_1_0" arrivalPos="480.00" arrivalSpeed="14.23" duration="101.00" routeLength="972.18" waitingTime="22.00" waitingCount="1" stopTime="0.00" timeLoss="33.22" rerouteNo="0" devices="tripinfo_I6" vType="CarA" speedFactor="1.05" vaporized=""/>
    <tripinfo id="I11" depart="6.00" departLane="E_2_0_0" departPos="5.10" departSpeed="0.00" departDelay="6.00" arrival="106.00" arrivalLane="E_0_3_0" arrivalPos="476.80" arrivalSpeed="12.85" duration="100.00" routeLength="995.07" waitingTime="17.00" waitingCount="1" stopTime="0.00" timeLoss="29.73" rerouteNo="0" devices="tripinfo_I11" vType="CarA" speedFactor="1.03" vaporized=""/>
    <tripinfo id="V0" depart="1.00" departLane="E_1_0_5" departPos="0.00" departSpeed="10.00" departDelay="0.00" arrival="106.00" arrivalLane="E_0_4_0" arrivalPos="476.80" arrivalSpeed="13.36" duration="105.00" routeLength="998.02" waitingTime="29.00" waitingCount="1" stopTime="0.00" timeLoss="36.49" rerouteNo="0" devices="tripinfo_V0" vType="CarA" speedFactor="1.06" vaporized=""/>
    <tripinfo id="V30" depart="31.00" departLane="E_2_0_4" departPos="0.00" departSpeed="10.00" departDelay="0.00" arrival="106.00" arrivalLane="E_0_3_1" arrivalPos="476.80" arrivalSpeed="15.20" duration="75.00" routeLength="1000.17" waitingTime="3.00" waitingCount="1" stopTime="0.00" timeLoss="13.01" rerouteNo="0" devices="tripinfo_V30" vType="CarA" speedFactor="1.18" vaporized=""/>
    <tripinfo id="V31" depart="31.00" departLane="E_3_0_0" departPos="0.00" departSpeed="10.00" departDelay="0.00" arrival="107.00" arrivalLane="E_0_2_0" arrivalPos="486.40" arrivalSpeed="15.54" duration="76.00" routeLength="986.70" waitingTime="1.00" waitingCount="1" stopTime="0.00" timeLoss="13.15" rerouteNo="0" devices="tripinfo_V31" vType="CarA" speedFactor="1.15" vaporized=""/>
    <tripinfo id="V38" depart="34.00" departLane="E_2_0_4" departPos="0.00" departSpeed="10.00" departDelay="0.00" arrival="107.00" arrivalLane="E_0_3_1" arrivalPos="476.80" arrivalSpeed="13.89" duration="73.00" routeLength="993.84" waitingTime="0.00" waitingCount="0" stopTime="0.00" timeLoss="7.29" rerouteNo="0" devices="tripinfo_V38" vType="CarA" speedFactor="1.10" vaporized=""/>
    <tripinfo id="I1" depart="0.00" departLane="E_4_0_0" departPos="5.10" departSpeed="0.00" departDelay="0.00" arrival="109.00" arrivalLane="E_0_1_0" arrivalPos="480.00" arrivalSpeed="12.69" duration="109.00" routeLength="972.18" waitingTime="22.00" waitingCount="1" stopTime="0.00" timeLoss="33.13" rerouteNo="0" devices="tripinfo_I1" vType="CarA" speedFactor="0.94" vaporized=""/>
    <tripinfo id="V1" depart="3.00" departLane="E_1_0_4" departPos="0.00" departSpeed="10.00" departDelay="0.00" arrival="112.00" arrivalLane="E_0_4_0" arrivalPos="476.80" arrivalSpeed="12.05" duration="109.00" routeLength="998.02" waitingTime="22.00" waitingCount="1" stopTime="0.00" timeLoss="32.06" rerouteNo="0" devices="tripinfo_V1" vType="CarA" speedFactor="0.94" vaporized=""/>
    <tripinfo id="V14" depart="16.00" departLane="E_4_0_0" departPos="0.00" departSpeed="10.00" departDelay="0.00" arrival="112.00" arrivalLane="E_0_1_0" arrivalPos="480.00" arrivalSpeed="13.37" duration="96.00" routeLength="977.28" waitingTime="8.00" waitingCount="1" stopTime="0.00" timeLoss="24.01" rerouteNo="0" devices="tripinfo_V14" vType="CarA" speedFactor="0.99" vaporized=""/>
    <tripinfo id="I17" depart="7.00" departLane="E_1_0_0" departPos="5.10" departSpeed="0.00" departDelay="7.00" arrival="114.00" arrivalLane="E_0_4_0" arrivalPos="476.80" arrivalSpeed="12.51" duration="107.00" routeLength="992.92" waitingTime="18.00" waitingCount="1" stopTime="0.00" timeLoss="30.34" rerouteNo="0" devices="tripinfo_I17" vType="CarA" speedFactor="0.94" vaporized=""/>
    <tripinfo id="V17" depart="19.00" departLane="E_1_0_5" departPos="0.00" departSpeed="10.00" departDelay="0.00" arrival="115.00" arrivalLane="E_0_4_2" arrivalPos="476.80" arrivalSpeed="12.49" duration="96.00" routeLength="991.51" waitingTime="9.00" waitingCount="1" stopTime="0.00" timeLoss="19.58" rerouteNo="0" devices="tripinfo_V17" vType="CarA" speedFactor="0.94" vaporized=""/>
    <tripinfo id="I9" depart="4.00" departLane="E_2_0_0" departPos="5.10" departSpeed="0.00" departDelay="4.00" arrival="116.00" arrivalLane="E_0_3_0" arrivalPos="476.80" arrivalSpeed="10.52" duration="112.00" routeLength="995.07" waitingTime="15.00" waitingCount="1" stopTime="0.00" timeLoss="27.94" rerouteNo="0" devices="tripinfo_I9" vType="CarA" speedFactor="0.86" vaporized=""/>
    <tripinfo id="V7" depart="9.00" departLane="E_1_0_4" departPos="0.00" departSpeed="10.00" departDelay="0.00" arrival="116.00" arrivalLane="E_0_4_1" arrivalPos="476.80" arrivalSpeed="11.18" duration="107.00" routeLength="991.51" waitingTime="15.00" waitingCount="1" stopTime="0.00" timeLoss="25.61" rerouteNo="0" devices="tripinfo_V7" vType="CarA" speedFactor="0.89" vaporized=""/>
    <tripinfo id="V15" depart="18.00" departLane="E_1_0_4" departPos="0.00" departSpeed="10.00" departDelay="1.00" arrival="116.00" arrivalLane="E_0_4_0" arrivalPos="476.80" arrivalSpeed="11.72" duration="98.00" routeLength="998.02" waitingTime="10.00" waitingCount="1" stopTime="0.00" timeLoss="20.28" rerouteNo="0" devices="tripinfo_V15" vType="CarA" speedFactor="0.93" vaporized=""/>
    <tripinfo id="V32" depart="31.00" departLane="E_4_0_0" departPos="0.00" departSpeed="10.00" departDelay="0.00" arrival="116.00" arrivalLane="E_0_1_1" arrivalPos="480.00" arrivalSpeed="13.83" duration="85.00" routeLength="977.28" waitingTime="0.00" waitingCount="0" stopTime="0.00" timeLoss="13.76" rerouteNo="0" devices="tripinfo_V32" vType="CarA" speedFactor="1.01" vaporized=""/>
    <tripinfo id="V44" depart="37.00" departLane="E_1_0_5" departPos="0.00" departSpeed="10.00" departDelay="0.00" arrival="117.00" arrivalLane="E_0_4_2" arrivalPos="476.80" arrivalSpeed="13.45" duration="80.00" routeLength="991.51" waitingTime="0.00" waitingCount="0" stopTime="0.00" timeLoss="10.50" rerouteNo="0" devices="tripinfo_V44" vType="CarA" speedFactor="1.04" vaporized=""/>
    <tripinfo id="V5" depart="13.00" departLane="E_4_0_0" departPos="0.00" departSpeed="10.00" departDelay="7.00" arrival="118.00" arrivalLane="E_0_1_0" arrivalPos="480.00" arrivalSpeed="11.41" duration="105.00" routeLength="977.28" waitingTime="9.00" waitingCount="1" stopTime="0.00" timeLoss="18.69" rerouteNo="0" devices="tripinfo_V5" vType="CarA" speedFactor="0.83" vaporized=""/>
    <tripinfo id="V36" depart="33.00" departLane="E_4_0_0" departPos="0.00" departSpeed="10.00" departDelay="0.00" arrival="118.00" arrivalLane="E_0_1_1" arrivalPos="480.00" arrivalSpeed="13.08" duration="85.00" routeLength="977.28" waitingTime="0.00" waitingCount="0" stopTime="0.00" timeLoss="12.18" rerouteNo="0" devices="tripinfo_V36" vType="CarA" speedFactor="0.97" vaporized=""/>
    <tripinfo id="V25" depart="28.00" departLane="E_4_0_0" departPos="0.00" departSpeed="10.00" departDelay="0.00" arrival="119.00" arrivalLane="E_0_1_0" arrivalPos="480.00" arrivalSpeed="11.54" duration="91.00" routeLength="977.28" waitingTime="0.00" waitingCount="0" stopTime="0.00" timeLoss="9.32" rerouteNo="0" devices="tripinfo_V25" vType="CarA" speedFactor="0.87" vaporized=""/>
    <tripinfo id="V23" depart="28.00" departLane="E_1_0_4" departPos="0.00" departSpeed="10.00" departDelay="0.00" arrival="120.00" arrivalLane="E_0_4_0" arrivalPos="476.80" arrivalSpeed="12.11" duration="92.00" routeLength="998.02" waitingTime="0.00" waitingCount="0" stopTime="0.00" timeLoss="10.13" rerouteNo="0" devices="tripinfo_V23" vType="CarA" speedFactor="0.89" vaporized=""/>
    <tripinfo id="V45" depart="38.00" departLane="E_4_0_0" departPos="0.00" departSpeed="10.00" departDelay="1.00" arrival="120.00" arrivalLane="E_0_1_1" arrivalPos="480.00" arrivalSpeed="14.47" duration="82.00" routeLength="977.28" waitingTime="0.00" waitingCount="0" stopTime="0.00" timeLoss="16.14" rerouteNo="0" devices="tripinfo_V45" vType="CarA" speedFactor="1.09" vaporized=""/>
    <tripinfo id="V39" depart="34.00" departLane="E_4_0_0" departPos="0.00" departSpeed="10.00" departDelay="0.00" arrival="123.00" arrivalLane="E_0_1_0" arrivalPos="480.00" arrivalSpeed="11.96" duration="89.00" routeLength="977.28" waitingTime="0.00" waitingCount="0" stopTime="0.00" timeLoss="9.91" rerouteNo="0" devices="tripinfo_V39" vType="CarA" speedFactor="0.90" vaporized=""/>
    <tripinfo id="V41" depart="36.00" departLane="E_4_0_0" departPos="0.00" departSpeed="10.00" departDelay="1.00" arrival="124.00" arrivalLane="E_0_1_1" arrivalPos="480.00" arrivalSpeed="12.15" duration="88.00" routeLength="977.28" waitingTime="0.00" waitingCount="0" stopTime="0.00" timeLoss="13.23" rerouteNo="0" devices="tripinfo_V41" vType="CarA" speedFactor="0.96" vaporized=""/>
    <tripinfo id="V42" depart="36.00" departLane="E_2_0_0" departPos="0.00" departSpeed="10.00" departDelay="0.00" arrival="135.00" arrivalLane="E_0_4_0" arrivalPos="476.80" arrivalSpeed="13.95" duration="99.00" routeLength="972.23" waitingTime="25.00" waitingCount="1" stopTime="0.00" timeLoss="33.73" rerouteNo="0" devices="tripinfo_V42" vType="CarA" speedFactor="1.09" vaporized=""/>
    <tripinfo id="V54" depart="59.00" departLane="E_4_0_0" departPos="0.00" departSpeed="10.00" departDelay="0.00" arrival="136.00" arrivalLane="E_0_1_0" arrivalPos="480.00" arrivalSpeed="13.81" duration="77.00" routeLength="977.28" waitingTime="0.00" waitingCount="0" stopTime="0.00" timeLoss="5.03" rerouteNo="0" devices="tripinfo_V54" vType="CarA" speedFactor="1.00" vaporized=""/>
    <tripinfo id="V3" depart="3.00" departLane="E_4_0_4" departPos="0.00" departSpeed="10.00" departDelay="0.00" arrival="137.00" arrivalLane="E_0_2_0" arrivalPos="486.40" arrivalSpeed="14.93" duration="134.00" routeLength="995.83" waitingTime="59.00" waitingCount="1" stopTime="0.00" timeLoss="67.29" rerouteNo="0" devices="tripinfo_V3" vType="CarA" speedFactor="1.08" vaporized=""/>
    <tripinfo id="V21" depart="27.00" departLane="E_1_0_2" departPos="0.00" departSpeed="10.00" departDelay="0.00" arrival="138.00" arrivalLane="E_0_3_0" arrivalPos="476.80" arrivalSpeed="12.73" duration="111.00" routeLength="971.37" waitingTime="33.00" waitingCount="1" stopTime="0.00" timeLoss="40.43" rerouteNo="0" devices="tripinfo_V21" vType="CarA" speedFactor="1.01" vaporized=""/>
    <tripinfo id="V51" depart="54.00" departLane="E_1_0_2" departPos="0.00" departSpeed="10.00" departDelay="0.00" arrival="138.00" arrivalLane="E_0_3_1" arrivalPos="476.80" arrivalSpeed="15.42" duration="84.00" routeLength="976.43" waitingTime="12.00" waitingCount="1" stopTime="0.00" timeLoss="23.24" rerouteNo="0" devices="tripinfo_V51" vType="CarA" speedFactor="1.17" vaporized=""/>
    <tripinfo id="V2" depart="3.00" departLane="E_3_0_2" departPos="0.00" departSpeed="10.00" departDelay="0.00" arrival="140.00" arrivalLane="E_0_1_0" arrivalPos="480.00" arrivalSpeed="12.65" duration="137.00" routeLength="996.92" waitingTime="57.00" waitingCount="1" stopTime="0.00" timeLoss="65.82" rerouteNo="0" devices="tripinfo_V2" vType="CarA" speedFactor="1.01" vaporized=""/>
    <tripinfo id="V4" depart="5.00" departLane="E_4_0_4" departPos="0.00" departSpeed="10.00" departDelay="1.00" arrival="142.00" arrivalLane="E_0_2_0" arrivalPos="486.40" arrivalSpeed="12.98" duration="137.00" routeLength="995.83" waitingTime="57.00" waitingCount="1" stopTime="0.00" timeLoss="66.29" rerouteNo="0" devices="tripinfo_V4" vType="CarA" speedFactor="1.03" vaporized=""/>
    <tripinfo id="V26" depart="29.00" departLane="E_1_0_0" departPos="0.00" departSpeed="10.00" departDelay="0.00" arrival="142.00" arrivalLane="E_0_3_0" arrivalPos="476.80" arrivalSpeed="11.64" duration="113.00" routeLength="976.43" waitingTime="27.00" waitingCount="1" stopTime="0.00" timeLoss="35.48" rerouteNo="0" devices="tripinfo_V26" vType="CarA" speedFactor="0.92" vaporized=""/>
    <tripinfo id="V29" depart="31.00" departLane="E_1_0_1" departPos="0.00" departSpeed="10.00" departDelay="0.00" arrival="142.00" arrivalLane="E_0_3_1" arrivalPos="476.80" arrivalSpeed="12.86" duration="111.00" routeLength="981.53" waitingTime="24.00" waitingCount="1" stopTime="0.00" timeLoss="34.47" rerouteNo="0" devices="tripinfo_V29" vType="CarA" speedFactor="0.93" vaporized=""/>
    <tripinfo id="V6" depart="7.00" departLane="E_4_0_4" departPos="0.00" departSpeed="10.00" departDelay="1.00" arrival="143.00" arrivalLane="E_0_2_0" arrivalPos="486.40" arrivalSpeed="13.80" duration="136.00" routeLength="995.83" waitingTime="57.00" waitingCount="1" stopTime="0.00" timeLoss="66.80" rerouteNo="0" devices="tripinfo_V6" vType="CarA" speedFactor="1.05" vaporized=""/>
    <tripinfo id="V47" depart="41.00" departLane="E_2_0_0" departPos="0.00" departSpeed="10.00" departDelay="0.00" arrival="144.00" arrivalLane="E_0_4_0" arrivalPos="476.80" arrivalSpeed="11.15" duration="103.00" routeLength="980.05" waitingTime="13.00" waitingCount="1" stopTime="0.00" timeLoss="23.77" rerouteNo="0" devices="tripinfo_V47" vType="CarA" speedFactor="0.90" vaporized=""/>
    <tripinfo id="I15" depart="7.00" departLane="E_3_0_0" departPos="5.10" departSpeed="0.00" departDelay="7.00" arrival="145.00" arrivalLane="E_0_1_0" arrivalPos="480.00" arrivalSpeed="11.38" duration="138.00" routeLength="991.82" waitingTime="49.00" waitingCount="1" stopTime="0.00" timeLoss="60.64" rerouteNo="0" devices="tripinfo_I15" vType="CarA" speedFactor="0.93" vaporized=""/>
    <tripinfo id="V12" depart="15.00" departLane="E_4_0_4" departPos="0.00" departSpeed="10.00" departDelay="0.00" arrival="145.00" arrivalLane="E_0_2_0" arrivalPos="486.40" arrivalSpeed="14.46" duration="130.00" routeLength="995.83" waitingTime="50.00" waitingCount="1" stopTime="0.00" timeLoss="60.44" rerouteNo="0" devices="tripinfo_V12" vType="CarA" speedFactor="1.05" vaporized=""/>
    <tripinfo id="V19" depart="24.00" departLane="E_4_0_4" departPos="0.00" departSpeed="10.00" departDelay="0.00" arrival="146.00" arrivalLane="E_0_2_0" arrivalPos="486.40" arrivalSpeed="15.17" duration="122.00" routeLength="995.83" waitingTime="47.00" waitingCount="1" stopTime="0.00" timeLoss="59.49" rerouteNo="0" devices="tripinfo_V19" vType="CarA" speedFactor="1.16" vaporized=""/>
    <tripinfo id="V18" depart="23.00" departLane="E_3_0_2" departPos="0.00" departSpeed="10.00" departDelay="0.00" arrival="149.00" arrivalLane="E_0_1_1" arrivalPos="480.00" arrivalSpeed="12.57" duration="126.00" routeLength="996.92" waitingTime="38.00" waitingCount="1" stopTime="0.00" timeLoss="48.60" rerouteNo="0" devices="tripinfo_V18" vType="CarA" speedFactor="0.94" vaporized=""/>
    <tripinfo id="V16" depart="18.00" departLane="E_3_0_2" departPos="0.00" departSpeed="10.00" departDelay="0.00" arrival="150.00" arrivalLane="E_0_1_0" arrivalPos="480.00" arrivalSpeed="11.40" duration="132.00" routeLength="996.92" waitingTime="39.00" waitingCount="1" stopTime="0.00" timeLoss="49.22" rerouteNo="0" devices="tripinfo_V16" vType="CarA" speedFactor="0.88" vaporized=""/>
    <tripinfo id="V46" depart="40.00" departLane="E_4_0_4" departPos="0.00" departSpeed="10.00" departDelay="0.00" arrival="150.00" arrivalLane="E_0_2_0" arrivalPos="486.40" arrivalSpeed="12.92" duration="110.00" routeLength="995.83" waitingTime="25.00" waitingCount="1" stopTime="0.00" timeLoss="37.51" rerouteNo="0" devices="tripinfo_V46" vType="CarA" speedFactor="1.00" vaporized=""/>
    <tripinfo id="V53" depart="58.00" departLane="E_3_0_2" departPos="0.00" departSpeed="10.00" departDelay="0.00" arrival="150.00" arrivalLane="E_0_1_1" arrivalPos="480.00" arrivalSpeed="14.77" duration="92.00" routeLength="996.92" waitingTime="12.00" waitingCount="1" stopTime="0.00" timeLoss="26.18" rerouteNo="0" devices="tripinfo_V53" vType="CarA" speedFactor="1.10" vaporized=""/>
    <tripinfo id="V57" depart="62.00" departLane="E_3_0_2" departPos="0.00" departSpeed="10.00" departDelay="0.00" arrival="152.00" arrivalLane="E_0_1_1" arrivalPos="480.00" arrivalSpeed="15.78" duration="90.00" routeLength="996.92" waitingTime="10.00" waitingCount="1" stopTime="0.00" timeLoss="26.36" rerouteNo="0" devices="tripinfo_V57" vType="CarA" speedFactor="1.14" vaporized=""/>
    <tripinfo id="V55" depart="60.00" departLane="E_3_0_2" departPos="0.00" departSpeed="10.00" departDelay="0.00" arrival="155.00" arrivalLane="E_0_1_1" arrivalPos="480.00" arrivalSpeed="12.65" duration="95.00" routeLength="996.92" waitingTime="10.00" waitingCount="1" stopTime="0.00" timeLoss="21.88" rerouteNo="0" devices="tripinfo_V55" vType="CarA" speedFactor="1.00" vaporized=""/>
    <tripinfo id="V24" depart="28.00" departLane="E_3_0_2" departPos="0.00" departSpeed="10.00" departDelay="0.00" arrival="156.00" arrivalLane="E_0_1_0" arrivalPos="480.00" arrivalSpeed="11.19" duration="128.00" routeLength="996.92" waitingTime="30.00" waitingCount="1" stopTime="0.00" timeLoss="40.70" rerouteNo="0" devices="tripinfo_V24" vType="CarA" speedFactor="0.83" vaporized=""/>
    <tripinfo id="V61" depart="70.00" departLane="E_3_0_2" departPos="0.00" departSpeed="10.00" departDelay="0.00" arrival="156.00" arrivalLane="E_0_1_1" arrivalPos="480.00" arrivalSpeed="15.50" duration="86.00" routeLength="996.92" waitingTime="6.00" waitingCount="1" stopTime="0.00" timeLoss="21.18" rerouteNo="0" devices="tripinfo_V61" vType="CarA" speedFactor="1.12" vaporized=""/>
    <tripinfo id="V60" depart="65.00" departLane="E_3_0_2" departPos="0.00" departSpeed="10.00" departDelay="0.00" arrival="157.00" arrivalLane="E_0_1_1" arrivalPos="480.00" arrivalSpeed="14.09" duration="92.00" routeLength="996.92" waitingTime="8.00" waitingCount="1" stopTime="0.00" timeLoss="25.56" rerouteNo="0" devices="tripinfo_V60" vType="CarA" speedFactor="1.08" vaporized=""/>
    <tripinfo id="V75" depart="79.00" departLane="E_2_0_0" departPos="0.00" departSpeed="10.00" departDelay="0.00" arrival="157.00" arrivalLane="E_0_4_0" arrivalPos="476.80" arrivalSpeed="13.53" duration="78.00" routeLength="972.23" waitingTime="0.00" waitingCount="0" stopTime="0.00" timeLoss="5.44" rerouteNo="0" devices="tripinfo_V75" vType="CarA" speedFactor="0.98" vaporized=""/>
    <tripinfo id="V48" depart="44.00" departLane="E_4_0_4" departPos="0.00" departSpeed="10.00" departDelay="0.00" arrival="158.00" arrivalLane="E_0_2_0" arrivalPos="486.40" arrivalSpeed="11.40" duration="114.00" routeLength="995.83" waitingTime="17.00" waitingCount="1" stopTime="0.00" timeLoss="31.10" rerouteNo="0" devices="tripinfo_V48" vType="CarA" speedFactor="0.88" vaporized=""/>
    <tripinfo id="V49" depart="45.00" departLane="E_3_0_2" departPos="0.00" departSpeed="10.00" departDelay="0.00" arrival="158.00" arrivalLane="E_0_1_0" arrivalPos="480.00" arrivalSpeed="10.45" duration="113.00" routeLength="996.92" waitingTime="15.00" waitingCount="1" stopTime="0.00" timeLoss="28.03" rerouteNo="0" devices="tripinfo_V49" vType="CarA" speedFactor="0.85" vaporized=""/>
    <tripinfo id="V50" depart="53.00" departLane="E_4_0_4" departPos="0.00" departSpeed="10.00" departDelay="0.00" arrival="161.00" arrivalLane="E_0_2_0" arrivalPos="486.40" arrivalSpeed="11.00" duration="108.00" routeLength="995.83" waitingTime="10.00" waitingCount="1" stopTime="0.00" timeLoss="22.80" rerouteNo="0" devices="tripinfo_V50" vType="CarA" speedFactor="0.85" vaporized=""/>
    <tripinfo id="V81" depart="84.00" departLane="E_2_0_0" departPos="0.00" departSpeed="10.00" departDelay="0.00" arrival="161.00" arrivalLane="E_0_4_0" arrivalPos="476.80" arrivalSpeed="13.71" duration="77.00" routeLength="972.23" waitingTime="0.00" waitingCount="0" stopTime="0.00" timeLoss="5.76" rerouteNo="0" devices="tripinfo_V81" vType="CarA" speedFactor="1.00" vaporized=""/>
    <tripinfo id="V52" depart="56.00" departLane="E_4_0_4" departPos="0.00" departSpeed="10.00" departDelay="0.00" arrival="162.00" arrivalLane="E_0_2_0" arrivalPos="486.40" arrivalSpeed="13.59" duration="106.00" routeLength="995.83" waitingTime="8.00" waitingCount="1" stopTime="0.00" timeLoss="34.65" rerouteNo="0" devices="tripinfo_V52" vType="CarA" speedFactor="1.02" vaporized=""/>
    <tripinfo id="V67" depart="73.00" departLane="E_3_0_2" departPos="0.00" departSpeed="10.00" departDelay="0.00" arrival="163.00" arrivalLane="E_0_1_0" arrivalPos="480.00" arrivalSpeed="11.58" duration="90.00" routeLength="996.92" waitingTime="1.00" waitingCount="1" stopTime="0.00" timeLoss="11.08" rerouteNo="0" devices="tripinfo_V67" vType="CarA" speedFactor="0.91" vaporized=""/>
    <tripinfo id="V68" depart="73.00" departLane="E_4_0_4" departPos="0.00" departSpeed="10.00" departDelay="0.00" arrival="163.00" arrivalLane="E_0_2_0" arrivalPos="486.40" arrivalSpeed="14.42" duration="90.00" routeLength="995.83" waitingTime="1.00" waitingCount="1" stopTime="0.00" timeLoss="20.68" rerouteNo="0" devices="tripinfo_V68" vType="CarA" speedFactor="1.04" vaporized=""/>
    <tripinfo id="V71" depart="76.00" departLane="E_3_0_2" departPos="0.00" departSpeed="10.00" departDelay="0.00" arrival="163.00" arrivalLane="E_0_1_1" arrivalPos="480.00" arrivalSpeed="13.22" duration="87.00" routeLength="996.92" waitingTime="0.00" waitingCount="0" stopTime="0.00" timeLoss="12.22" rerouteNo="0" devices="tripinfo_V71" vType="CarA" speedFactor="0.97" vaporized=""/>
    <tripinfo id="V84" depart="86.00" departLane="E_3_0_2" departPos="0.00" departSpeed="10.00" departDelay="0.00" arrival="164.00" arrivalLane="E_0_1_1" arrivalPos="480.00" arrivalSpeed="15.24" duration="78.00" routeLength="996.92" waitingTime="0.00" waitingCount="0" stopTime="0.00" timeLoss="14.98" rerouteNo="0" devices="tripinfo_V84" vType="CarA" speedFactor="1.15" vaporized=""/>
    <tripinfo id="V73" depart="77.00" departLane="E_3_0_2" departPos="0.00" departSpeed="10.00" departDelay="0.00" arrival="165.00" arrivalLane="E_0_1_0" arrivalPos="480.00" arrivalSpeed="14.61" duration="88.00" routeLength="996.92" waitingTime="0.00" waitingCount="0" stopTime="0.00" timeLoss="18.96" rerouteNo="0" devices="tripinfo_V73" vType="CarA" speedFactor="1.06" vaporized=""/>
    <tripinfo id="V74" depart="77.00" departLane="E_4_0_4" departPos="0.00" departSpeed="10.00" departDelay="0.00" arrival="165.00" arrivalLane="E_0_2_0" arrivalPos="486.40" arrivalSpeed="12.82" duration="88.00" routeLength="995.83" waitingTime="0.00" waitingCount="0" stopTime="0.00" timeLoss="12.05" rerouteNo="0" devices="tripinfo_V74" vType="CarA" speedFactor="0.96" vaporized=""/>
    <tripinfo id="V82" depart="84.00" departLane="E_3_0_2" departPos="0.00" departSpeed="10.00" departDelay="0.00" arrival="166.00" arrivalLane="E_0_1_0" arrivalPos="480.00" arrivalSpeed="13.53" duration="82.00" routeLength="996.92" waitingTime="0.00" waitingCount="0" stopTime="0.00" timeLoss="10.97" rerouteNo="0" devices="tripinfo_V82" vType="CarA" speedFactor="1.02" vaporized=""/>
    <tripinfo id="V86" depart="87.00" departLane="E_4_0_4" departPos="0.00" departSpeed="10.00" departDelay="0.00" arrival="167.00" arrivalLane="E_0_2_0" arrivalPos="486.40" arrivalSpeed="13.66" duration="80.00" routeLength="995.83" waitingTime="0.00" waitingCount="0" stopTime="0.00" timeLoss="7.20" rerouteNo="0" devices="tripinfo_V86" vType="CarA" speedFactor="1.00" vaporized=""/>
    <tripinfo id="V89" depart="90.00" departLane="E_3_0_2" departPos="0.00" departSpeed="10.00" departDelay="0.00" arrival="167.00" arrivalLane="E_0_1_1" arrivalPos="480.00" arrivalSpeed="13.79" duration="77.00" routeLength="996.92" waitingTime="0.00" waitingCount="0" stopTime="0.00" timeLoss="6.03" rerouteNo="0" devices="tripinfo_V89" vType="CarA" speedFactor="1.02" vaporized=""/>
    <tripinfo id="V62" depart="70.00" departLane="E_4_0_0" departPos="0.00" departSpeed="10.00" departDelay="0.00" arrival="171.00" arrivalLane="E_0_1_0" arrivalPos="480.00" arrivalSpeed="13.11" duration="101.00" routeLength="977.28" waitingTime="22.00" waitingCount="1" stopTime="0.00" timeLoss="31.08" rerouteNo="0" devices="tripinfo_V62" vType="CarA" speedFactor="1.02" vaporized=""/>
    <tripinfo id="I0" depart="0.00" departLane="E_3_0_0" departPos="5.10" departSpeed="0.00" departDelay="0.00" arrival="172.00" arrivalLane="E_0_4_0" arrivalPos="476.80" arrivalSpeed="14.71" duration="172.00" routeLength="994.97" waitingTime="92.00" waitingCount="1" stopTime="0.00" timeLoss="103.68" rerouteNo="0" devices="tripinfo_I0" vType="CarA" speedFactor="1.06" vaporized=""/>