<?xml version="1.0" encoding="UTF-8"?>

<!-- generated on 2023-05-27 18:15:34 by Eclipse SUMO GUI Version 1.16.0
<configuration xmlns:xsi="http://www.w3.org/2001/XMLSchema-instance" xsi:noNamespaceSchemaLocation="http://sumo.dlr.de/xsd/sumoConfiguration.xsd">

    <input>
        <net-file value="creators/sumo_files/app.net.xml"/>
        <route-files value="creators/sumo_files/app.rou.xml"/>
        <additional-files value="creators/sumo_files/app.program.xml"/>
    </input>

    <output>
        <tripinfo-output value="app.tripinfo.xml"/>
    </output>

    <time>
        <begin value="0"/>
        <end value="54900"/>
    </time>

    <processing>
        <time-to-teleport value="-1"/>
        <waiting-time-memory value="10000"/>
    </processing>

    <report>
        <verbose value="true"/>
        <no-step-log value="true"/>
    </report>

    <traci_server>
        <remote-port value="51715"/>
    </traci_server>

    <gui_only>
        <quit-on-end value="true"/>
        <start value="true"/>
    </gui_only>

</configuration>
-->

<tripinfos xmlns:xsi="http://www.w3.org/2001/XMLSchema-instance" xsi:noNamespaceSchemaLocation="http://sumo.dlr.de/xsd/tripinfo_file.xsd">
    <tripinfo id="I4" depart="0.00" departLane="E_2_0_0" departPos="5.10" departSpeed="0.00" departDelay="0.00" arrival="76.00" arrivalLane="E_0_1_0" arrivalPos="486.40" arrivalSpeed="13.13" duration="76.00" routeLength="995.12" waitingTime="0.00" waitingCount="0" stopTime="0.00" timeLoss="6.47" rerouteNo="0" devices="tripinfo_I4" vType="CarA" speedFactor="1.03" vaporized=""/>
    <tripinfo id="I6" depart="2.00" departLane="E_2_0_0" departPos="5.10" departSpeed="0.00" departDelay="2.00" arrival="78.00" arrivalLane="E_0_4_0" arrivalPos="486.40" arrivalSpeed="14.25" duration="76.00" routeLength="982.27" waitingTime="0.00" waitingCount="0" stopTime="0.00" timeLoss="7.27" rerouteNo="0" devices="tripinfo_I6" vType="CarA" speedFactor="1.05" vaporized=""/>
    <tripinfo id="I13" depart="9.00" departLane="E_2_0_0" departPos="5.10" departSpeed="0.00" departDelay="9.00" arrival="79.00" arrivalLane="E_0_1_0" arrivalPos="486.40" arrivalSpeed="15.31" duration="70.00" routeLength="995.12" waitingTime="0.00" waitingCount="0" stopTime="0.00" timeLoss="5.48" rerouteNo="0" devices="tripinfo_I13" vType="CarA" speedFactor="1.12" vaporized=""/>
    <tripinfo id="I9" depart="0.00" departLane="E_1_0_0" departPos="5.10" departSpeed="0.00" departDelay="0.00" arrival="92.00" arrivalLane="E_0_2_0" arrivalPos="486.40" arrivalSpeed="11.26" duration="92.00" routeLength="995.12" waitingTime="0.00" waitingCount="0" stopTime="0.00" timeLoss="7.46" rerouteNo="0" devices="tripinfo_I9" vType="CarA" speedFactor="0.86" vaporized=""/>
    <tripinfo id="I14" depart="2.00" departLane="E_1_0_0" departPos="5.10" departSpeed="0.00" departDelay="2.00" arrival="93.00" arrivalLane="E_0_2_0" arrivalPos="486.40" arrivalSpeed="13.16" duration="91.00" routeLength="995.12" waitingTime="0.00" waitingCount="0" stopTime="0.00" timeLoss="18.21" rerouteNo="0" devices="tripinfo_I14" vType="CarA" speedFactor="0.99" vaporized=""/>
    <tripinfo id="I18" depart="14.00" departLane="E_2_0_0" departPos="5.10" departSpeed="0.00" departDelay="14.00" arrival="97.00" arrivalLane="E_0_1_0" arrivalPos="486.40" arrivalSpeed="12.08" duration="83.00" routeLength="995.12" waitingTime="0.00" waitingCount="0" stopTime="0.00" timeLoss="6.37" rerouteNo="0" devices="tripinfo_I18" vType="CarA" speedFactor="0.94" vaporized=""/>
    <tripinfo id="I0" depart="0.00" departLane="E_3_0_0" departPos="5.10" departSpeed="0.00" departDelay="0.00" arrival="104.00" arrivalLane="E_0_2_0" arrivalPos="486.40" arrivalSpeed="13.76" duration="104.00" routeLength="982.27" waitingTime="25.00" waitingCount="1" stopTime="0.00" timeLoss="36.15" rerouteNo="0" devices="tripinfo_I0" vType="CarA" speedFactor="1.06" vaporized=""/>
    <tripinfo id="I3" depart="4.00" departLane="E_3_0_0" departPos="5.10" departSpeed="0.00" departDelay="4.00" arrival="105.00" arrivalLane="E_0_2_0" arrivalPos="486.40" arrivalSpeed="14.11" duration="101.00" routeLength="982.27" waitingTime="22.00" waitingCount="1" stopTime="0.00" timeLoss="35.06" rerouteNo="0" devices="tripinfo_I3" vType="CarA" speedFactor="1.08" vaporized=""/>
    <tripinfo id="V2" depart="2.00" departLane="E_2_0_2" departPos="0.00" departSpeed="10.00" departDelay="0.00" arrival="107.00" arrivalLane="E_0_3_0" arrivalPos="486.40" arrivalSpeed="13.55" duration="105.00" routeLength="997.31" waitingTime="23.00" waitingCount="1" stopTime="0.00" timeLoss="32.50" rerouteNo="0" devices="tripinfo_V2" vType="CarA" speedFactor="1.01" vaporized=""/>
    <tripinfo id="V8" depart="11.00" departLane="E_4_0_0" departPos="0.00" departSpeed="10.00" departDelay="0.00" arrival="109.00" arrivalLane="E_0_1_0" arrivalPos="486.40" arrivalSpeed="11.70" duration="98.00" routeLength="987.37" waitingTime="12.00" waitingCount="1" stopTime="0.00" timeLoss="21.18" rerouteNo="0" devices="tripinfo_V8" vType="CarA" speedFactor="0.94" vaporized=""/>
    <tripinfo id="V1" depart="2.00" departLane="E_1_0_2" departPos="0.00" departSpeed="10.00" departDelay="0.00" arrival="110.00" arrivalLane="E_0_4_0" arrivalPos="486.40" arrivalSpeed="11.78" duration="108.00" routeLength="997.31" waitingTime="21.00" waitingCount="1" stopTime="0.00" timeLoss="30.13" rerouteNo="0" devices="tripinfo_V1" vType="CarA" speedFactor="0.94" vaporized=""/>
    <tripinfo id="V3" depart="3.00" departLane="E_1_0_2" departPos="0.00" departSpeed="10.00" departDelay="0.00" arrival="111.00" arrivalLane="E_0_4_0" arrivalPos="486.40" arrivalSpeed="14.47" duration="108.00" routeLength="997.31" waitingTime="21.00" waitingCount="1" stopTime="0.00" timeLoss="40.69" rerouteNo="0" devices="tripinfo_V3" vType="CarA" speedFactor="1.08" vaporized=""/>
    <tripinfo id="V10" depart="20.00" departLane="E_4_0_0" departPos="0.00" departSpeed="10.00" departDelay="0.00" arrival="111.00" arrivalLane="E_0_1_0" arrivalPos="486.40" arrivalSpeed="14.09" duration="91.00" routeLength="987.37" waitingTime="10.00" waitingCount="1" stopTime="0.00" timeLoss="24.32" rerouteNo="0" devices="tripinfo_V10" vType="CarA" speedFactor="1.09" vaporized=""/>
    <tripinfo id="I8" depart="4.00" departLane="E_2_0_0" departPos="5.10" departSpeed="0.00" departDelay="4.00" arrival="112.00" arrivalLane="E_0_3_0" arrivalPos="486.40" arrivalSpeed="11.57" duration="108.00" routeLength="992.21" waitingTime="19.00" waitingCount="1" stopTime="0.00" timeLoss="30.45" rerouteNo="0" devices="tripinfo_I8" vType="CarA" speedFactor="0.94" vaporized=""/>
    <tripinfo id="V13" depart="22.00" departLane="E_4_0_0" departPos="0.00" departSpeed="10.00" departDelay="0.00" arrival="112.00" arrivalLane="E_0_1_0" arrivalPos="486.40" arrivalSpeed="14.55" duration="90.00" routeLength="987.37" waitingTime="10.00" waitingCount="1" stopTime="0.00" timeLoss="25.58" rerouteNo="0" devices="tripinfo_V13" vType="CarA" speedFactor="1.12" vaporized=""/>
    <tripinfo id="I11" depart="6.00" departLane="E_2_0_0" departPos="5.10" departSpeed="0.00" departDelay="6.00" arrival="113.00" arrivalLane="E_0_3_0" arrivalPos="486.40" arrivalSpeed="13.34" duration="107.00" routeLength="992.21" waitingTime="18.00" waitingCount="1" stopTime="0.00" timeLoss="36.67" rerouteNo="0" devices="tripinfo_I11" vType="CarA" speedFactor="1.03" vaporized=""/>
    <tripinfo id="V21" depart="29.00" departLane="E_4_0_0" departPos="0.00" departSpeed="10.00" departDelay="0.00" arrival="114.00" arrivalLane="E_0_1_0" arrivalPos="486.40" arrivalSpeed="13.55" duration="85.00" routeLength="987.37" waitingTime="1.00" waitingCount="1" stopTime="0.00" timeLoss="13.14" rerouteNo="0" devices="tripinfo_V21" vType="CarA" speedFactor="1.01" vaporized=""/>
    <tripinfo id="I7" depart="7.00" departLane="E_3_0_0" departPos="5.10" departSpeed="0.00" departDelay="7.00" arrival="115.00" arrivalLane="E_0_2_0" arrivalPos="486.40" arrivalSpeed="12.16" duration="108.00" routeLength="982.27" waitingTime="15.00" waitingCount="1" stopTime="0.00" timeLoss="27.30" rerouteNo="0" devices="tripinfo_I7" vType="CarA" speedFactor="0.89" vaporized=""/>
    <tripinfo id="I15" depart="11.00" departLane="E_2_0_0" departPos="5.10" departSpeed="0.00" departDelay="11.00" arrival="116.00" arrivalLane="E_0_3_0" arrivalPos="486.40" arrivalSpeed="11.54" duration="105.00" routeLength="992.21" waitingTime="14.00" waitingCount="1" stopTime="0.00" timeLoss="27.10" rerouteNo="0" devices="tripinfo_I15" vType="CarA" speedFactor="0.93" vaporized=""/>
    <tripinfo id="V22" depart="31.00" departLane="E_4_0_0" departPos="0.00" departSpeed="10.00" departDelay="1.00" arrival="116.00" arrivalLane="E_0_1_0" arrivalPos="486.40" arrivalSpeed="12.37" duration="85.00" routeLength="987.37" waitingTime="0.00" waitingCount="0" stopTime="0.00" timeLoss="10.68" rerouteNo="0" devices="tripinfo_V22" vType="CarA" speedFactor="0.97" vaporized=""/>
    <tripinfo id="I17" depart="14.00" departLane="E_3_0_0" departPos="5.10" departSpeed="0.00" departDelay="14.00" arrival="117.00" arrivalLane="E_0_2_0" arrivalPos="486.40" arrivalSpeed="12.80" duration="103.00" routeLength="982.27" waitingTime="12.00" waitingCount="1" stopTime="0.00" timeLoss="26.64" rerouteNo="0" devices="tripinfo_I17" vType="CarA" speedFactor="0.94" vaporized=""/>
    <tripinfo id="V18" depart="26.00" departLane="E_2_0_2" departPos="0.00" departSpeed="10.00" departDelay="0.00" arrival="118.00" arrivalLane="E_0_3_0" arrivalPos="486.40" arrivalSpeed="12.47" duration="92.00" routeLength="997.31" waitingTime="2.00" waitingCount="1" stopTime="0.00" timeLoss="13.89" rerouteNo="0" devices="tripinfo_V18" vType="CarA" speedFactor="0.94" vaporized=""/>
    <tripinfo id="V5" depart="9.00" departLane="E_1_0_2" departPos="0.00" departSpeed="10.00" departDelay="0.00" arrival="120.00" arrivalLane="E_0_4_0" arrivalPos="486.40" arrivalSpeed="11.40" duration="111.00" routeLength="997.31" waitingTime="11.00" waitingCount="1" stopTime="0.00" timeLoss="23.12" rerouteNo="0" devices="tripinfo_V5" vType="CarA" speedFactor="0.83" vaporized=""/>
    <tripinfo id="V14" depart="24.00" departLane="E_1_0_2" departPos="0.00" departSpeed="10.00" departDelay="0.00" arrival="121.00" arrivalLane="E_0_4_0" arrivalPos="486.40" arrivalSpeed="13.22" duration="97.00" routeLength="997.31" waitingTime="5.00" waitingCount="1" stopTime="0.00" timeLoss="23.59" rerouteNo="0" devices="tripinfo_V14" vType="CarA" speedFactor="0.99" vaporized=""/>
    <tripinfo id="V25" depart="35.00" departLane="E_4_0_0" departPos="0.00" departSpeed="10.00" departDelay="0.00" arrival="124.00" arrivalLane="E_0_1_0" arrivalPos="486.40" arrivalSpeed="10.82" duration="89.00" routeLength="987.37" waitingTime="0.00" waitingCount="0" stopTime="0.00" timeLoss="6.58" rerouteNo="0" devices="tripinfo_V25" vType="CarA" speedFactor="0.87" vaporized=""/>
    <tripinfo id="V27" depart="39.00" departLane="E_4_0_0" departPos="0.00" departSpeed="10.00" departDelay="0.00" arrival="126.00" arrivalLane="E_0_1_0" arrivalPos="486.40" arrivalSpeed="12.43" duration="87.00" routeLength="987.37" waitingTime="0.00" waitingCount="0" stopTime="0.00" timeLoss="10.66" rerouteNo="0" devices="tripinfo_V27" vType="CarA" speedFactor="0.95" vaporized=""/>
    <tripinfo id="V24" depart="35.00" departLane="E_2_0_2" departPos="0.00" departSpeed="10.00" departDelay="0.00" arrival="130.00" arrivalLane="E_0_3_0" arrivalPos="486.40" arrivalSpeed="10.04" duration="95.00" routeLength="997.31" waitingTime="0.00" waitingCount="0" stopTime="0.00" timeLoss="6.76" rerouteNo="0" devices="tripinfo_V24" vType="CarA" speedFactor="0.83" vaporized=""/>
    <tripinfo id="V28" depart="48.00" departLane="E_2_0_2" departPos="0.00" departSpeed="10.00" departDelay="0.00" arrival="131.00" arrivalLane="E_0_3_0" arrivalPos="486.40" arrivalSpeed="13.02" duration="83.00" routeLength="997.31" waitingTime="0.00" waitingCount="0" stopTime="0.00" timeLoss="18.87" rerouteNo="0" devices="tripinfo_V28" vType="CarA" speedFactor="1.13" vaporized=""/>
    <tripinfo id="V31" depart="53.00" departLane="E_2_0_2" departPos="0.00" departSpeed="10.00" departDelay="0.00" arrival="133.00" arrivalLane="E_0_3_0" arrivalPos="486.40" arrivalSpeed="15.79" duration="80.00" routeLength="997.31" waitingTime="0.00" waitingCount="0" stopTime="0.00" timeLoss="16.48" rerouteNo="0" devices="tripinfo_V31" vType="CarA" speedFactor="1.15" vaporized=""/>
    <tripinfo id="V32" depart="58.00" departLane="E_2_0_2" departPos="0.00" departSpeed="10.00" departDelay="0.00" arrival="135.00" arrivalLane="E_0_3_0" arrivalPos="486.40" arrivalSpeed="12.85" duration="77.00" routeLength="997.31" waitingTime="0.00" waitingCount="0" stopTime="0.00" timeLoss="4.88" rerouteNo="0" devices="tripinfo_V32" vType="CarA" speedFactor="1.01" vaporized=""/>
    <tripinfo id="I12" depart="11.00" departLane="E_3_0_0" departPos="5.10" departSpeed="0.00" departDelay="11.00" arrival="138.00" arrivalLane="E_0_1_0" arrivalPos="486.40" arrivalSpeed="13.16" duration="127.00" routeLength="992.21" waitingTime="48.00" waitingCount="1" stopTime="0.00" timeLoss="58.13" rerouteNo="0" devices="tripinfo_I12" vType="CarA" speedFactor="1.05" vaporized=""/>
    <tripinfo id="V20" depart="28.00" departLane="E_2_0_0" departPos="0.00" departSpeed="10.00" departDelay="0.00" arrival="139.00" arrivalLane="E_0_4_0" arrivalPos="486.40" arrivalSpeed="14.07" duration="111.00" routeLength="987.37" waitingTime="33.00" waitingCount="1" stopTime="0.00" timeLoss="39.65" rerouteNo="0" devices="tripinfo_V20" vType="CarA" speedFactor="1.02" vaporized=""/>
    <tripinfo id="I10" depart="9.00" departLane="E_3_0_0" departPos="5.10" departSpeed="0.00" departDelay="9.00" arrival="140.00" arrivalLane="E_0_1_0" arrivalPos="486.40" arrivalSpeed="14.56" duration="131.00" routeLength="992.21" waitingTime="47.00" waitingCount="1" stopTime="0.00" timeLoss="64.41" rerouteNo="0" devices="tripinfo_I10" vType="CarA" speedFactor="1.09" vaporized=""/>
    <tripinfo id="I19" depart="16.00" departLane="E_3_0_0" departPos="5.10" departSpeed="0.00" departDelay="16.00" arrival="141.00" arrivalLane="E_0_1_0" arrivalPos="486.40" arrivalSpeed="15.44" duration="125.00" routeLength="992.21" waitingTime="46.00" waitingCount="1" stopTime="0.00" timeLoss="62.76" rerouteNo="0" devices="tripinfo_I19" vType="CarA" speedFactor="1.16" vaporized=""/>
    <tripinfo id="I5" depart="3.00" departLane="E_4_0_0" departPos="5.10" departSpeed="0.00" departDelay="3.00" arrival="148.00" arrivalLane="E_0_2_0" arrivalPos="486.40" arrivalSpeed="10.43" duration="145.00" routeLength="992.21" waitingTime="47.00" waitingCount="1" stopTime="0.00" timeLoss="58.01" rerouteNo="0" devices="tripinfo_I5" vType="CarA" speedFactor="0.83" vaporized=""/>
    <tripinfo id="V9" depart="13.00" departLane="E_4_0_2" departPos="0.00" departSpeed="10.00" departDelay="0.00" arrival="150.00" arrivalLane="E_0_2_0" arrivalPos="486.40" arrivalSpeed="10.41" duration="137.00" routeLength="997.31" waitingTime="41.00" waitingCount="1" stopTime="0.00" timeLoss="51.88" rerouteNo="0" devices="tripinfo_V9" vType="CarA" speedFactor="0.86" vaporized=""/>
    <tripinfo id="V12" depart="21.00" departLane="E_4_0_2" departPos="0.00" departSpeed="10.00" departDelay="0.00" arrival="151.00" arrivalLane="E_0_2_0" arrivalPos="486.40" arrivalSpeed="13.45" duration="130.00" routeLength="997.31" waitingTime="40.00" waitingCount="1" stopTime="0.00" timeLoss="60.48" rerouteNo="0" devices="tripinfo_V12" vType="CarA" speedFactor="1.05" vaporized=""/>
    <tripinfo id="V19" depart="27.00" departLane="E_4_0_2" departPos="0.00" departSpeed="10.00" departDelay="1.00" arrival="153.00" arrivalLane="E_0_2_0" arrivalPos="486.40" arrivalSpeed="14.94" duration="126.00" routeLength="997.31" waitingTime="39.00" waitingCount="1" stopTime="0.00" timeLoss="62.81" rerouteNo="0" devices="tripinfo_V19" vType="CarA" speedFactor="1.16" vaporized=""/>
    <tripinfo id="V16" depart="25.00" departLane="E_4_0_2" departPos="0.00" departSpeed="10.00" departDelay="0.00" arrival="154.00" arrivalLane="E_0_2_0" arrivalPos="486.40" arrivalSpeed="12.04" duration="129.00" routeLength="997.31" waitingTime="34.00" waitingCount="1" stopTime="0.00" timeLoss="46.37" rerouteNo="0" devices="tripinfo_V16" vType="CarA" speedFactor="0.88" vaporized=""/>
    <tripinfo id="V23" depart="32.00" departLane="E_4_0_2" departPos="0.00" departSpeed="10.00" departDelay="0.00" arrival="156.00" arrivalLane="E_0_2_0" arrivalPos="486.40" arrivalSpeed="12.08" duration="124.00" routeLength="997.31" waitingTime="28.00" waitingCount="1" stopTime="0.00" timeLoss="41.73" rerouteNo="0" devices="tripinfo_V23" vType="CarA" speedFactor="0.89" vaporized=""/>
    <tripinfo id="V30" depart="51.00" departLane="E_4_0_2" departPos="0.00" departSpeed="10.00" departDelay="0.00" arrival="157.00" arrivalLane="E_0_2_0" arrivalPos="486.40" arrivalSpeed="15.26" duration="106.00" routeLength="997.31" waitingTime="21.00" waitingCount="1" stopTime="0.00" timeLoss="44.28" rerouteNo="0" devices="tripinfo_V30" vType="CarA" speedFactor="1.18" vaporized=""/>
    <tripinfo id="V33" depart="58.00" departLane="E_4_0_2" departPos="0.00" departSpeed="10.00" departDelay="0.00" arrival="159.00" arrivalLane="E_0_2_0" arrivalPos="486.40" arrivalSpeed="14.86" duration="101.00" routeLength="997.31" waitingTime="15.00" waitingCount="1" stopTime="0.00" timeLoss="38.53" rerouteNo="0" devices="tripinfo_V33" vType="CarA" speedFactor="1.17" vaporized=""/>
    <tripinfo id="V35" depart="60.00" departLane="E_4_0_2" departPos="0.00" departSpeed="10.00" departDelay="0.00" arrival="160.00" arrivalLane="E_0_2_0" arrivalPos="486.40" arrivalSpeed="12.73" duration="100.00" routeLength="997.31" waitingTime="10.00" waitingCount="1" stopTime="0.00" timeLoss="28.89" rerouteNo="0" devices="tripinfo_V35" vType="CarA" speedFactor="1.02" vaporized=""/>
    <tripinfo id="V53" depart="88.00" departLane="E_4_0_2" departPos="0.00" departSpeed="10.00" departDelay="0.00" arrival="162.00" arrivalLane="E_0_2_0" arrivalPos="486.40" arrivalSpeed="13.92" duration="74.00" routeLength="997.31" waitingTime="0.00" waitingCount="0" stopTime="0.00" timeLoss="7.13" rerouteNo="0" devices="tripinfo_V53" vType="CarA" speedFactor="1.10" vaporized=""/>
    <tripinfo id="V37" depart="64.00" departLane="E_2_0_2" departPos="0.00" departSpeed="10.00" departDelay="0.00" arrival="167.00" arrivalLane="E_0_3_0" arrivalPos="486.40" arrivalSpeed="15.14" duration="103.00" routeLength="997.31" waitingTime="32.00" waitingCount="1" stopTime="0.00" timeLoss="41.46" rerouteNo="0" devices="tripinfo_V37" vType="CarA" speedFactor="1.18" vaporized=""/>
    <tripinfo id="V54" depart="90.00" departLane="E_2_0_0" departPos="0.00" departSpeed="10.00" departDelay="0.00" arrival="167.00" arrivalLane="E_0_4_0" arrivalPos="486.40" arrivalSpeed="13.08" duration="77.00" routeLength="987.37" waitingTime="0.00" waitingCount="0" stopTime="0.00" timeLoss="5.07" rerouteNo="0" devices="tripinfo_V54" vType="CarA" speedFactor="1.00" vaporized=""/>
    <tripinfo id="V34" depart="60.00" departLane="E_4_0_0" departPos="0.00" departSpeed="10.00" departDelay="0.00" arrival="172.00" arrivalLane="E_0_1_0" arrivalPos="486.40" arrivalSpeed="13.01" duration="112.00" routeLength="987.37" waitingTime="33.00" waitingCount="1" stopTime="0.00" timeLoss="39.33" rerouteNo="0" devices="tripinfo_V34" vType="CarA" speedFactor="0.99" vaporized=""/>
    <tripinfo id="V38" depart="68.00" departLane="E_4_0_0" departPos="0.00" departSpeed="10.00" departDelay="0.00" arrival="173.00" arrivalLane="E_0_1_0" arrivalPos="486.40" arrivalSpeed="14.91" duration="105.00" routeLength="987.37" waitingTime="27.00" waitingCount="1" stopTime="0.00" timeLoss="39.52" rerouteNo="0" devices="tripinfo_V38" vType="CarA" speedFactor="1.10" vaporized=""/>
    <tripinfo id="V41" depart="78.00" departLane="E_1_0_2" departPos="0.00" departSpeed="10.00" departDelay="0.00" arrival="175.00" arrivalLane="E_0_4_0" arrivalPos="486.40" arrivalSpeed="13.27" duration="97.00" routeLength="997.31" waitingTime="13.00" waitingCount="1" stopTime="0.00" timeLoss="20.57" rerouteNo="0" devices="tripinfo_V41" vType="CarA" speedFactor="0.96" vaporized=""/>
    <tripinfo id="V44" depart="81.00" departLane="E_1_0_2" departPos="0.00" departSpeed="10.00" departDelay="0.00" arrival="176.00" arrivalLane="E_0_4_0" arrivalPos="486.40" arrivalSpeed="13.77" duration="95.00" routeLength="997.31" waitingTime="11.00" waitingCount="1" stopTime="0.00" timeLoss="25.28" rerouteNo="0" devices="tripinfo_V44" vType="CarA" speedFactor="1.04" vaporized=""/>
    <tripinfo id="V0" depart="1.00" departLane="E_3_0_1" departPos="0.00" departSpeed="10.00" departDelay="0.00" arrival="179.00" arrivalLane="E_0_4_0" arrivalPos="486.40" arrivalSpeed="14.27" duration="178.00" routeLength="1000.22" waitingTime="100.00" waitingCount="1" stopTime="0.00" timeLoss="109.43" rerouteNo="0" devices="tripinfo_V0" vType="CarA" speedFactor="1.06" vaporized=""/>
    <tripinfo id="V48" depart="83.00" departLane="E_2_0_2" departPos="0.00" departSpeed="10.00" departDelay="0.00" arrival="180.00" arrivalLane="E_0_3_0" arrivalPos="486.40" arrivalSpeed="12.14" duration="97.00" routeLength="997.31" waitingTime="6.00" waitingCount="1" stopTime="0.00" timeLoss="14.07" rerouteNo="0" devices="tripinfo_V48" vType="CarA" speedFactor="0.88" vaporized=""/>
    <tripinfo id="V4" depart="4.00" departLane="E_3_0_1" departPos="0.00" departSpeed="10.00" departDelay="0.00" arrival="181.00" arrivalLane="E_0_4_0" arrivalPos="486.40" arrivalSpeed="13.69" duration="177.00" routeLength="1000.22" waitingTime="98.00" waitingCount="1" stopTime="0.00" timeLoss="107.06" rerouteNo="0" devices="tripinfo_V4" vType="CarA" speedFactor="1.03" vaporized=""/>
    <tripinfo id="V46" depart="82.00" departLane="E_4_0_0" departPos="0.00" departSpeed="10.00" departDelay="0.00" arrival="181.00" arrivalLane="E_0_1_0" arrivalPos="486.40" arrivalSpeed="12.38" duration="99.00" routeLength="987.37" waitingTime="14.00" waitingCount="2" stopTime="0.00" timeLoss="26.50" rerouteNo="0" devices="tripinfo_V46" vType="CarA" speedFactor="1.00" vaporized=""/>
    <tripinfo id="I2" depart="0.00" departLane="E_4_0_0" departPos="5.10" departSpeed="0.00" departDelay="0.00" arrival="182.00" arrivalLane="E_0_3_0" arrivalPos="486.40" arrivalSpeed="13.92" duration="182.00" routeLength="995.12" waitingTime="97.00" waitingCount="1" stopTime="0.00" timeLoss="110.16" rerouteNo="0" devices="tripinfo_I2" vType="CarA" speedFactor="1.01" vaporized=""/>
    <tripinfo id="I1" depart="2.00" departLane="E_3_0_0" departPos="5.10" departSpeed="0.00" departDelay="2.00" arrival="187.00" arrivalLane="E_0_4_0" arrivalPos="486.40" arrivalSpeed="12.91" duration="185.00" routeLength="995.12" waitingTime="96.00" waitingCount="1" stopTime="0.00" timeLoss="108.28" rerouteNo="0" devices="tripinfo_I1" vType="CarA" speedFactor="0.94" vaporized=""/>
    <tripinfo id="I16" depart="5.00" departLane="E_4_0_0" departPos="5.10" departSpeed="0.00" departDelay="5.00" arrival="188.00" arrivalLane="E_0_3_0" arrivalPos="486.40" arrivalSpeed="11.74" duration="183.00" routeLength="995.12" waitingTime="89.00" waitingCount="1" stopTime="0.00" timeLoss="101.31" rerouteNo="0" devices="tripinfo_I16" vType="CarA" speedFactor="0.88" vaporized=""/>
    <tripinfo id="V6" depart="9.00" departLane="E_4_0_1" departPos="0.00" departSpeed="10.00" departDelay="0.00" arrival="190.00" arrivalLane="E_0_3_0" arrivalPos="486.40" arrivalSpeed="14.02" duration="181.00" routeLength="1000.22" waitingTime="88.00" waitingCount="1" stopTime="0.00" timeLoss="111.49" rerouteNo="0" devices="tripinfo_V6" vType="CarA" speedFactor="1.05" vaporized=""/>
    <tripinfo id="V49" depart="86.00" departLane="E_4_0_0" departPos="0.00" departSpeed="10.00" departDelay="0.00" arrival="190.00" arrivalLane="E_0_1_0" arrivalPos="486.40" arrivalSpeed="10.79" duration="104.00" routeLength="987.37" waitingTime="4.00" waitingCount="2" stopTime="0.00" timeLoss="18.81" rerouteNo="0" devices="tripinfo_V49" vType="CarA" speedFactor="0.85" vaporized=""/>
    <tripinfo id="V7" depart="10.00" departLane="E_3_0_1" departPos="0.00" departSpeed="10.00" departDelay="0.00" arrival="191.00" arrivalLane="E_0_4_0" arrivalPos="486.40" arrivalSpeed="11.72" duration="181.00" routeLength="1000.22" waitingTime="90.00" waitingCount="1" stopTime="0.00" timeLoss="99.67" rerouteNo="0" devices="tripinfo_V7" vType="CarA" speedFactor="0.89" vaporized=""/>
    <tripinfo id="V11" depart="20.00" departLane="E_4_0_1" departPos="0.00" departSpeed="10.00" departDelay="0.00" arrival="191.00" arrivalLane="E_0_3_0" arrivalPos="486.40" arrivalSpeed="13.83" duration="171.00" routeLength="1000.22" waitingTime="86.00" waitingCount="1" stopTime="0.00" timeLoss="100.64" rerouteNo="0" devices="tripinfo_V11" vType="CarA" speedFactor="1.03" vaporized=""/>
    <tripinfo id="V51" depart="88.00" departLane="E_4_0_0" departPos="0.00" departSpeed="10.00" departDelay="1.00" arrival="191.00" arrivalLane="E_0_1_0" arrivalPos="486.40" arrivalSpeed="13.56" duration="103.00" routeLength="987.37" waitingTime="3.00" waitingCount="2" stopTime="0.00" timeLoss="41.25" rerouteNo="0" devices="tripinfo_V51" vType="CarA" speedFactor="1.17" vaporized=""/>
    <tripinfo id="V57" depart="98.00" departLane="E_4_0_0" departPos="0.00" departSpeed="10.00" departDelay="0.00" arrival="192.00" arrivalLane="E_0_1_0" arrivalPos="486.40" arrivalSpeed="13.53" duration="94.00" routeLength="987.37" waitingTime="1.00" waitingCount="1" stopTime="0.00" timeLoss="31.31" rerouteNo="0" devices="tripinfo_V57" vType="CarA" speedFactor="1.14" vaporized=""/>
    <tripinfo id="V29" depart="50.00" departLane="E_3_0_1" departPos="0.00" departSpeed="10.00" departDelay="0.00" arrival="193.00" arrivalLane="E_0_4_0" arrivalPos="486.40" arrivalSpeed="11.83" duration="143.00" routeLength="1000.22" waitingTime="52.00" waitingCount="1" stopTime="0.00" timeLoss="65.20" rerouteNo="0" devices="tripinfo_V29" vType="CarA" speedFactor="0.93" vaporized=""/>
    <tripinfo id="V40" depart="76.00" departLane="E_4_0_1" departPos="0.00" departSpeed="10.00" departDelay="0.00" arrival="193.00" arrivalLane="E_0_3_0" arrivalPos="486.40" arrivalSpeed="13.33" duration="117.00" routeLength="1000.22" waitingTime="32.00" waitingCount="1" stopTime="0.00" timeLoss="46.51" rerouteNo="0" devices="tripinfo_V40" vType="CarA" speedFactor="1.03" vaporized=""/>
    <tripinfo id="V61" depart="105.00" departLane="E_4_0_0" departPos="0.00" departSpeed="10.00" departDelay="0.00" arrival="194.00" arrivalLane="E_0_1_0" arrivalPos="486.40" arrivalSpeed="14.12" duration="89.00" routeLength="987.37" waitingTime="0.00" waitingCount="0" stopTime="0.00" timeLoss="24.53" rerouteNo="0" devices="tripinfo_V61" vType="CarA" speedFactor="1.12" vaporized=""/>
    <tripinfo id="V15" depart="25.00" departLane="E_1_0_1" departPos="0.00" departSpeed="10.00" departDelay="0.00" arrival="197.00" arrivalLane="E_0_2_0" arrivalPos="486.40" arrivalSpeed="11.96" duration="172.00" routeLength="1000.22" waitingTime="84.00" waitingCount="1" stopTime="0.00" timeLoss="93.88" rerouteNo="0" devices="tripinfo_V15" vType="CarA" speedFactor="0.93" vaporized=""/>
    <tripinfo id="V17" depart="26.00" departLane="E_2_0_1" departPos="0.00" departSpeed="10.00" departDelay="0.00" arrival="197.00" arrivalLane="E_0_1_0" arrivalPos="486.40" arrivalSpeed="11.96" duration="171.00" routeLength="1000.22" waitingTime="85.00" waitingCount="1" stopTime="0.00" timeLoss="93.82" rerouteNo="0" devices="tripinfo_V17" vType="CarA" speedFactor="0.94" vaporized=""/>
    <tripinfo id="V65" depart="110.00" departLane="E_1_0_0" departPos="0.00" departSpeed="10.00" departDelay="0.00" arrival="199.00" arrivalLane="E_0_3_0" arrivalPos="486.40" arrivalSpeed="10.80" duration="89.00" routeLength="987.37" waitingTime="0.00" waitingCount="0" stopTime="0.00" timeLoss="6.52" rerouteNo="0" devices="tripinfo_V65" vType="CarA" speedFactor="0.88" vaporized=""/>
    <tripinfo id="V26" depart="38.00" departLane="E_2_0_1" departPos="0.00" departSpeed="10.00" departDelay="0.00" arrival="200.00" arrivalLane="E_0_1_0" arrivalPos="486.40" arrivalSpeed="12.10" duration="162.00" routeLength="1000.22" waitingTime="71.00" waitingCount="1" stopTime="0.00" timeLoss="82.59" rerouteNo="0" devices="tripinfo_V26" vType="CarA" speedFactor="0.92" vaporized=""/>
    <tripinfo id="V63" depart="106.00" departLane="E_4_0_2" departPos="0.00" departSpeed="10.00" departDelay="0.00" arrival="203.00" arrivalLane="E_0_2_0" arrivalPos="486.40" arrivalSpeed="13.56" duration="97.00" routeLength="997.31" waitingTime="13.00" waitingCount="1" stopTime="0.00" timeLoss="22.73" rerouteNo="0" devices="tripinfo_V63" vType="CarA" speedFactor="0.99" vaporized=""/>
    <tripinfo id="V69" depart="119.00" departLane="E_4_0_2" departPos="0.00" departSpeed="10.00" departDelay="0.00" arrival="204.00" arrivalLane="E_0_2_0" arrivalPos="486.40" arrivalSpeed="13.62" duration="85.00" routeLength="997.31" waitingTime="3.00" waitingCount="1" stopTime="0.00" timeLoss="13.68" rerouteNo="0" devices="tripinfo_V69" vType="CarA" speedFactor="1.02" vaporized=""/>
    <tripinfo id="V72" depart="123.00" departLane="E_4_0_2" departPos="0.00" departSpeed="10.00" departDelay="0.00" arrival="208.00" arrivalLane="E_0_2_0" arrivalPos="486.40" arrivalSpeed="11.98" duration="85.00" routeLength="997.31" waitingTime="0.00" waitingCount="0" stopTime="0.00" timeLoss="7.51" rerouteNo="0" devices="tripinfo_V72" vType="CarA" speedFactor="0.94" vaporized=""/>
    <tripinfo id="V36" depart="64.00" departLane="E_2_0_1" departPos="0.00" departSpeed="10.00" departDelay="0.00" arrival="211.00" arrivalLane="E_0_1_0" arrivalPos="486.40" arrivalSpeed="13.51" duration="147.00" routeLength="1000.22" waitingTime="61.00" waitingCount="2" stopTime="0.00" timeLoss="72.12" rerouteNo="0" devices="tripinfo_V36" vType="CarA" speedFactor="0.97" vaporized=""/>