<?xml version="1.0" encoding="UTF-8"?>

<!-- generated on 2023-05-31 19:02:07 by Eclipse SUMO GUI Version 1.16.0
<configuration xmlns:xsi="http://www.w3.org/2001/XMLSchema-instance" xsi:noNamespaceSchemaLocation="http://sumo.dlr.de/xsd/sumoConfiguration.xsd">

    <input>
        <net-file value="creators/sumo_files/app.net.xml"/>
        <route-files value="creators/sumo_files/app.rou.xml"/>
        <additional-files value="creators/sumo_files/app.program.xml"/>
    </input>

    <output>
        <tripinfo-output value="app.tripinfo.xml"/>
    </output>

    <time>
        <begin value="0"/>
        <end value="54900"/>
    </time>

    <processing>
        <time-to-teleport value="-1"/>
    </processing>

    <report>
        <verbose value="true"/>
        <no-step-log value="true"/>
    </report>

    <traci_server>
        <remote-port value="64158"/>
    </traci_server>

</configuration>
-->

<tripinfos xmlns:xsi="http://www.w3.org/2001/XMLSchema-instance" xsi:noNamespaceSchemaLocation="http://sumo.dlr.de/xsd/tripinfo_file.xsd">
    <tripinfo id="I4" depart="2.00" departLane="E_1_0_0" departPos="5.10" departSpeed="0.00" departDelay="2.00" arrival="79.00" arrivalLane="E_0_2_0" arrivalPos="486.40" arrivalSpeed="13.67" duration="77.00" routeLength="995.12" waitingTime="0.00" waitingCount="0" stopTime="0.00" timeLoss="6.58" rerouteNo="0" devices="tripinfo_I4" vType="CarA" speedFactor="1.03" vaporized=""/>
    <tripinfo id="V1" depart="6.00" departLane="E_1_0_1" departPos="0.00" departSpeed="10.00" departDelay="0.00" arrival="88.00" arrivalLane="E_0_2_0" arrivalPos="486.40" arrivalSpeed="12.57" duration="82.00" routeLength="1000.22" waitingTime="0.00" waitingCount="0" stopTime="0.00" timeLoss="5.01" rerouteNo="0" devices="tripinfo_V1" vType="CarA" speedFactor="0.94" vaporized=""/>
    <tripinfo id="I8" depart="5.00" departLane="E_1_0_0" departPos="5.10" departSpeed="0.00" departDelay="5.00" arrival="89.00" arrivalLane="E_0_3_0" arrivalPos="486.40" arrivalSpeed="12.14" duration="84.00" routeLength="982.27" waitingTime="0.00" waitingCount="0" stopTime="0.00" timeLoss="7.39" rerouteNo="0" devices="tripinfo_I8" vType="CarA" speedFactor="0.94" vaporized=""/>
    <tripinfo id="V0" depart="10.00" departLane="E_1_0_0" departPos="0.00" departSpeed="10.00" departDelay="4.00" arrival="90.00" arrivalLane="E_0_3_0" arrivalPos="486.40" arrivalSpeed="13.36" duration="80.00" routeLength="987.37" waitingTime="0.00" waitingCount="0" stopTime="0.00" timeLoss="12.29" rerouteNo="0" devices="tripinfo_V0" vType="CarA" speedFactor="1.06" vaporized=""/>
    <tripinfo id="I5" depart="0.00" departLane="E_2_0_0" departPos="5.10" departSpeed="0.00" departDelay="0.00" arrival="95.00" arrivalLane="E_0_4_0" arrivalPos="486.40" arrivalSpeed="11.49" duration="95.00" routeLength="982.27" waitingTime="0.00" waitingCount="0" stopTime="0.00" timeLoss="8.27" rerouteNo="0" devices="tripinfo_I5" vType="CarA" speedFactor="0.83" vaporized=""/>
    <tripinfo id="I0" depart="0.00" departLane="E_1_0_0" departPos="5.10" departSpeed="0.00" departDelay="0.00" arrival="105.00" arrivalLane="E_0_4_0" arrivalPos="486.40" arrivalSpeed="13.74" duration="105.00" routeLength="992.21" waitingTime="27.00" waitingCount="1" stopTime="0.00" timeLoss="36.43" rerouteNo="0" devices="tripinfo_I0" vType="CarA" speedFactor="1.06" vaporized=""/>
    <tripinfo id="I11" depart="2.00" departLane="E_3_0_0" departPos="5.10" departSpeed="0.00" departDelay="2.00" arrival="105.00" arrivalLane="E_0_2_0" arrivalPos="486.40" arrivalSpeed="13.23" duration="103.00" routeLength="982.27" waitingTime="23.00" waitingCount="1" stopTime="0.00" timeLoss="33.14" rerouteNo="0" devices="tripinfo_I11" vType="CarA" speedFactor="1.03" vaporized=""/>
    <tripinfo id="I14" depart="12.00" departLane="E_4_0_0" departPos="5.10" departSpeed="0.00" departDelay="12.00" arrival="106.00" arrivalLane="E_0_1_0" arrivalPos="486.40" arrivalSpeed="13.24" duration="94.00" routeLength="982.27" waitingTime="12.00" waitingCount="1" stopTime="0.00" timeLoss="21.88" rerouteNo="0" devices="tripinfo_I14" vType="CarA" speedFactor="0.99" vaporized=""/>
    <tripinfo id="I13" depart="4.00" departLane="E_3_0_0" departPos="5.10" departSpeed="0.00" departDelay="4.00" arrival="107.00" arrivalLane="E_0_2_0" arrivalPos="486.40" arrivalSpeed="15.57" duration="103.00" routeLength="982.27" waitingTime="23.00" waitingCount="1" stopTime="0.00" timeLoss="38.54" rerouteNo="0" devices="tripinfo_I13" vType="CarA" speedFactor="1.12" vaporized=""/>
    <tripinfo id="V10" depart="29.00" departLane="E_3_0_0" departPos="0.00" departSpeed="10.00" departDelay="0.00" arrival="108.00" arrivalLane="E_0_2_0" arrivalPos="486.40" arrivalSpeed="14.02" duration="79.00" routeLength="987.37" waitingTime="2.00" waitingCount="1" stopTime="0.00" timeLoss="13.21" rerouteNo="0" devices="tripinfo_V10" vType="CarA" speedFactor="1.09" vaporized=""/>
    <tripinfo id="I17" depart="16.00" departLane="E_4_0_0" departPos="5.10" departSpeed="0.00" departDelay="16.00" arrival="111.00" arrivalLane="E_0_1_0" arrivalPos="486.40" arrivalSpeed="12.87" duration="95.00" routeLength="982.27" waitingTime="7.00" waitingCount="2" stopTime="0.00" timeLoss="18.36" rerouteNo="0" devices="tripinfo_I17" vType="CarA" speedFactor="0.94" vaporized=""/>
    <tripinfo id="V6" depart="20.00" departLane="E_4_0_0" departPos="0.00" departSpeed="10.00" departDelay="8.00" arrival="112.00" arrivalLane="E_0_1_0" arrivalPos="486.40" arrivalSpeed="13.59" duration="92.00" routeLength="987.37" waitingTime="6.00" waitingCount="1" stopTime="0.00" timeLoss="23.05" rerouteNo="0" devices="tripinfo_V6" vType="CarA" speedFactor="1.05" vaporized=""/>
    <tripinfo id="I7" depart="2.00" departLane="E_2_0_0" departPos="5.10" departSpeed="0.00" departDelay="2.00" arrival="113.00" arrivalLane="E_0_3_0" arrivalPos="486.40" arrivalSpeed="11.86" duration="111.00" routeLength="992.21" waitingTime="17.00" waitingCount="1" stopTime="0.00" timeLoss="28.85" rerouteNo="0" devices="tripinfo_I7" vType="CarA" speedFactor="0.89" vaporized=""/>
    <tripinfo id="I16" depart="7.00" departLane="E_1_0_0" departPos="5.10" departSpeed="0.00" departDelay="7.00" arrival="114.00" arrivalLane="E_0_4_0" arrivalPos="486.40" arrivalSpeed="12.18" duration="107.00" routeLength="992.21" waitingTime="14.00" waitingCount="1" stopTime="0.00" timeLoss="24.44" rerouteNo="0" devices="tripinfo_I16" vType="CarA" speedFactor="0.88" vaporized=""/>
    <tripinfo id="V11" depart="31.00" departLane="E_1_0_2" departPos="0.00" departSpeed="10.00" departDelay="0.00" arrival="115.00" arrivalLane="E_0_4_0" arrivalPos="486.40" arrivalSpeed="13.58" duration="84.00" routeLength="997.31" waitingTime="0.00" waitingCount="0" stopTime="0.00" timeLoss="13.40" rerouteNo="0" devices="tripinfo_V11" vType="CarA" speedFactor="1.03" vaporized=""/>
    <tripinfo id="I9" depart="4.00" departLane="E_2_0_0" departPos="5.10" departSpeed="0.00" departDelay="4.00" arrival="116.00" arrivalLane="E_0_3_0" arrivalPos="486.40" arrivalSpeed="10.74" duration="112.00" routeLength="992.21" waitingTime="14.00" waitingCount="1" stopTime="0.00" timeLoss="27.57" rerouteNo="0" devices="tripinfo_I9" vType="CarA" speedFactor="0.86" vaporized=""/>
    <tripinfo id="I18" depart="6.00" departLane="E_2_0_0" departPos="5.10" departSpeed="0.00" departDelay="6.00" arrival="118.00" arrivalLane="E_0_3_0" arrivalPos="486.40" arrivalSpeed="12.13" duration="112.00" routeLength="992.21" waitingTime="14.00" waitingCount="1" stopTime="0.00" timeLoss="34.12" rerouteNo="0" devices="tripinfo_I18" vType="CarA" speedFactor="0.94" vaporized=""/>
    <tripinfo id="V7" depart="22.00" departLane="E_4_0_0" departPos="0.00" departSpeed="10.00" departDelay="8.00" arrival="118.00" arrivalLane="E_0_1_0" arrivalPos="486.40" arrivalSpeed="10.95" duration="96.00" routeLength="987.37" waitingTime="3.00" waitingCount="1" stopTime="0.00" timeLoss="14.50" rerouteNo="0" devices="tripinfo_V7" vType="CarA" speedFactor="0.89" vaporized=""/>
    <tripinfo id="I19" depart="9.00" departLane="E_2_0_0" departPos="5.10" departSpeed="0.00" departDelay="9.00" arrival="119.00" arrivalLane="E_0_3_0" arrivalPos="486.40" arrivalSpeed="14.45" duration="110.00" routeLength="992.21" waitingTime="13.00" waitingCount="1" stopTime="0.00" timeLoss="47.32" rerouteNo="0" devices="tripinfo_I19" vType="CarA" speedFactor="1.16" vaporized=""/>
    <tripinfo id="V14" depart="36.00" departLane="E_4_0_0" departPos="0.00" departSpeed="10.00" departDelay="0.00" arrival="119.00" arrivalLane="E_0_1_0" arrivalPos="486.40" arrivalSpeed="13.23" duration="83.00" routeLength="987.37" waitingTime="0.00" waitingCount="0" stopTime="0.00" timeLoss="10.48" rerouteNo="0" devices="tripinfo_V14" vType="CarA" speedFactor="0.99" vaporized=""/>
    <tripinfo id="V5" depart="12.00" departLane="E_2_0_2" departPos="0.00" departSpeed="10.00" departDelay="0.00" arrival="123.00" arrivalLane="E_0_3_0" arrivalPos="486.40" arrivalSpeed="11.31" duration="111.00" routeLength="997.31" waitingTime="13.00" waitingCount="1" stopTime="0.00" timeLoss="23.06" rerouteNo="0" devices="tripinfo_V5" vType="CarA" speedFactor="0.83" vaporized=""/>
    <tripinfo id="V8" depart="23.00" departLane="E_2_0_2" departPos="0.00" departSpeed="10.00" departDelay="0.00" arrival="124.00" arrivalLane="E_0_3_0" arrivalPos="486.40" arrivalSpeed="12.27" duration="101.00" routeLength="997.31" waitingTime="8.00" waitingCount="1" stopTime="0.00" timeLoss="23.50" rerouteNo="0" devices="tripinfo_V8" vType="CarA" speedFactor="0.94" vaporized=""/>
    <tripinfo id="V21" depart="49.00" departLane="E_3_0_0" departPos="0.00" departSpeed="10.00" departDelay="0.00" arrival="125.00" arrivalLane="E_0_2_0" arrivalPos="486.40" arrivalSpeed="12.84" duration="76.00" routeLength="987.37" waitingTime="0.00" waitingCount="0" stopTime="0.00" timeLoss="4.62" rerouteNo="0" devices="tripinfo_V21" vType="CarA" speedFactor="1.01" vaporized=""/>
    <tripinfo id="V28" depart="59.00" departLane="E_3_0_0" departPos="0.00" departSpeed="10.00" departDelay="0.00" arrival="127.00" arrivalLane="E_0_2_0" arrivalPos="486.40" arrivalSpeed="14.35" duration="68.00" routeLength="987.37" waitingTime="0.00" waitingCount="0" stopTime="0.00" timeLoss="4.81" rerouteNo="0" devices="tripinfo_V28" vType="CarA" speedFactor="1.13" vaporized=""/>
    <tripinfo id="V17" depart="46.00" departLane="E_2_0_2" departPos="0.00" departSpeed="10.00" departDelay="0.00" arrival="129.00" arrivalLane="E_0_3_0" arrivalPos="486.40" arrivalSpeed="12.43" duration="83.00" routeLength="997.31" waitingTime="0.00" waitingCount="0" stopTime="0.00" timeLoss="5.43" rerouteNo="0" devices="tripinfo_V17" vType="CarA" speedFactor="0.94" vaporized=""/>
    <tripinfo id="V2" depart="6.00" departLane="E_3_0_2" departPos="0.00" departSpeed="10.00" departDelay="0.00" arrival="140.00" arrivalLane="E_0_1_0" arrivalPos="486.40" arrivalSpeed="13.38" duration="134.00" routeLength="997.31" waitingTime="54.00" waitingCount="1" stopTime="0.00" timeLoss="62.15" rerouteNo="0" devices="tripinfo_V2" vType="CarA" speedFactor="1.01" vaporized=""/>
    <tripinfo id="V22" depart="51.00" departLane="E_2_0_0" departPos="0.00" departSpeed="10.00" departDelay="0.00" arrival="140.00" arrivalLane="E_0_4_0" arrivalPos="486.40" arrivalSpeed="12.66" duration="89.00" routeLength="987.37" waitingTime="7.00" waitingCount="1" stopTime="0.00" timeLoss="15.25" rerouteNo="0" devices="tripinfo_V22" vType="CarA" speedFactor="0.97" vaporized=""/>
    <tripinfo id="V4" depart="11.00" departLane="E_3_0_2" departPos="0.00" departSpeed="10.00" departDelay="0.00" arrival="142.00" arrivalLane="E_0_1_0" arrivalPos="486.40" arrivalSpeed="14.06" duration="131.00" routeLength="997.31" waitingTime="51.00" waitingCount="1" stopTime="0.00" timeLoss="59.96" rerouteNo="0" devices="tripinfo_V4" vType="CarA" speedFactor="1.03" vaporized=""/>
    <tripinfo id="I1" depart="0.00" departLane="E_4_0_0" departPos="5.10" departSpeed="0.00" departDelay="0.00" arrival="143.00" arrivalLane="E_0_2_0" arrivalPos="486.40" arrivalSpeed="12.05" duration="143.00" routeLength="992.21" waitingTime="54.00" waitingCount="1" stopTime="0.00" timeLoss="65.55" rerouteNo="0" devices="tripinfo_I1" vType="CarA" speedFactor="0.94" vaporized=""/>
    <tripinfo id="V27" depart="59.00" departLane="E_2_0_0" departPos="0.00" departSpeed="10.00" departDelay="0.00" arrival="143.00" arrivalLane="E_0_4_0" arrivalPos="486.40" arrivalSpeed="11.95" duration="84.00" routeLength="987.37" waitingTime="0.00" waitingCount="0" stopTime="0.00" timeLoss="7.98" rerouteNo="0" devices="tripinfo_V27" vType="CarA" speedFactor="0.95" vaporized=""/>
    <tripinfo id="I2" depart="3.00" departLane="E_4_0_0" departPos="5.10" departSpeed="0.00" departDelay="3.00" arrival="144.00" arrivalLane="E_0_2_0" arrivalPos="486.40" arrivalSpeed="13.24" duration="141.00" routeLength="992.21" waitingTime="53.00" waitingCount="1" stopTime="0.00" timeLoss="69.47" rerouteNo="0" devices="tripinfo_I2" vType="CarA" speedFactor="1.01" vaporized=""/>
    <tripinfo id="V31" depart="61.00" departLane="E_2_0_0" departPos="0.00" departSpeed="10.00" departDelay="0.00" arrival="145.00" arrivalLane="E_0_4_0" arrivalPos="486.40" arrivalSpeed="15.78" duration="84.00" routeLength="987.37" waitingTime="0.00" waitingCount="0" stopTime="0.00" timeLoss="20.69" rerouteNo="0" devices="tripinfo_V31" vType="CarA" speedFactor="1.15" vaporized=""/>
    <tripinfo id="I3" depart="5.00" departLane="E_4_0_0" departPos="5.10" departSpeed="0.00" departDelay="5.00" arrival="146.00" arrivalLane="E_0_2_0" arrivalPos="486.40" arrivalSpeed="14.02" duration="141.00" routeLength="992.21" waitingTime="52.00" waitingCount="1" stopTime="0.00" timeLoss="73.72" rerouteNo="0" devices="tripinfo_I3" vType="CarA" speedFactor="1.08" vaporized=""/>
    <tripinfo id="I12" depart="9.00" departLane="E_4_0_0" departPos="5.10" departSpeed="0.00" departDelay="9.00" arrival="147.00" arrivalLane="E_0_2_0" arrivalPos="486.40" arrivalSpeed="14.18" duration="138.00" routeLength="992.21" waitingTime="50.00" waitingCount="1" stopTime="0.00" timeLoss="69.05" rerouteNo="0" devices="tripinfo_I12" vType="CarA" speedFactor="1.05" vaporized=""/>
    <tripinfo id="V18" depart="46.00" departLane="E_3_0_2" departPos="0.00" departSpeed="10.00" departDelay="0.00" arrival="147.00" arrivalLane="E_0_1_0" arrivalPos="486.40" arrivalSpeed="12.36" duration="101.00" routeLength="997.31" waitingTime="12.00" waitingCount="1" stopTime="0.00" timeLoss="22.95" rerouteNo="0" devices="tripinfo_V18" vType="CarA" speedFactor="0.94" vaporized=""/>
    <tripinfo id="V29" depart="59.00" departLane="E_3_0_2" departPos="0.00" departSpeed="10.00" departDelay="0.00" arrival="149.00" arrivalLane="E_0_1_0" arrivalPos="486.40" arrivalSpeed="11.79" duration="90.00" routeLength="997.31" waitingTime="0.00" waitingCount="0" stopTime="0.00" timeLoss="11.95" rerouteNo="0" devices="tripinfo_V29" vType="CarA" speedFactor="0.93" vaporized=""/>
    <tripinfo id="I15" depart="14.00" departLane="E_4_0_0" departPos="5.10" departSpeed="0.00" departDelay="14.00" arrival="150.00" arrivalLane="E_0_2_0" arrivalPos="486.40" arrivalSpeed="11.98" duration="136.00" routeLength="992.21" waitingTime="45.00" waitingCount="1" stopTime="0.00" timeLoss="57.87" rerouteNo="0" devices="tripinfo_I15" vType="CarA" speedFactor="0.93" vaporized=""/>
    <tripinfo id="V19" depart="46.00" departLane="E_4_0_2" departPos="0.00" departSpeed="10.00" departDelay="0.00" arrival="152.00" arrivalLane="E_0_2_0" arrivalPos="486.40" arrivalSpeed="15.89" duration="106.00" routeLength="997.31" waitingTime="26.00" waitingCount="1" stopTime="0.00" timeLoss="42.47" rerouteNo="0" devices="tripinfo_V19" vType="CarA" speedFactor="1.16" vaporized=""/>
    <tripinfo id="V42" depart="86.00" departLane="E_1_0_0" departPos="0.00" departSpeed="10.00" departDelay="0.00" arrival="157.00" arrivalLane="E_0_3_0" arrivalPos="486.40" arrivalSpeed="14.36" duration="71.00" routeLength="987.37" waitingTime="0.00" waitingCount="0" stopTime="0.00" timeLoss="4.81" rerouteNo="0" devices="tripinfo_V42" vType="CarA" speedFactor="1.09" vaporized=""/>
    <tripinfo id="V43" depart="86.00" departLane="E_2_0_0" departPos="0.00" departSpeed="10.00" departDelay="0.00" arrival="160.00" arrivalLane="E_0_4_0" arrivalPos="486.40" arrivalSpeed="13.65" duration="74.00" routeLength="987.37" waitingTime="0.00" waitingCount="0" stopTime="0.00" timeLoss="5.06" rerouteNo="0" devices="tripinfo_V43" vType="CarA" speedFactor="1.04" vaporized=""/>
    <tripinfo id="V39" depart="74.00" departLane="E_3_0_2" departPos="0.00" departSpeed="10.00" departDelay="0.00" arrival="161.00" arrivalLane="E_0_1_0" arrivalPos="486.40" arrivalSpeed="11.46" duration="87.00" routeLength="997.31" waitingTime="0.00" waitingCount="0" stopTime="0.00" timeLoss="6.06" rerouteNo="0" devices="tripinfo_V39" vType="CarA" speedFactor="0.90" vaporized=""/>
    <tripinfo id="V46" depart="92.00" departLane="E_1_0_0" departPos="0.00" departSpeed="10.00" departDelay="0.00" arrival="170.00" arrivalLane="E_0_3_0" arrivalPos="486.40" arrivalSpeed="13.83" duration="78.00" routeLength="987.37" waitingTime="0.00" waitingCount="0" stopTime="0.00" timeLoss="5.38" rerouteNo="0" devices="tripinfo_V46" vType="CarA" speedFactor="1.00" vaporized=""/>
    <tripinfo id="V54" depart="99.00" departLane="E_2_0_0" departPos="0.00" departSpeed="10.00" departDelay="0.00" arrival="176.00" arrivalLane="E_0_4_0" arrivalPos="486.40" arrivalSpeed="12.87" duration="77.00" routeLength="987.37" waitingTime="0.00" waitingCount="0" stopTime="0.00" timeLoss="5.28" rerouteNo="0" devices="tripinfo_V54" vType="CarA" speedFactor="1.00" vaporized=""/>
    <tripinfo id="V57" depart="103.00" departLane="E_2_0_0" departPos="0.00" departSpeed="10.00" departDelay="0.00" arrival="178.00" arrivalLane="E_0_4_0" arrivalPos="486.40" arrivalSpeed="14.64" duration="75.00" routeLength="987.37" waitingTime="0.00" waitingCount="0" stopTime="0.00" timeLoss="11.14" rerouteNo="0" devices="tripinfo_V57" vType="CarA" speedFactor="1.14" vaporized=""/>
    <tripinfo id="V58" depart="105.00" departLane="E_2_0_0" departPos="0.00" departSpeed="10.00" departDelay="0.00" arrival="180.00" arrivalLane="E_0_4_0" arrivalPos="486.40" arrivalSpeed="13.42" duration="75.00" routeLength="987.37" waitingTime="0.00" waitingCount="0" stopTime="0.00" timeLoss="4.67" rerouteNo="0" devices="tripinfo_V58" vType="CarA" speedFactor="1.02" vaporized=""/>
    <tripinfo id="V48" depart="94.00" departLane="E_1_0_0" departPos="0.00" departSpeed="10.00" departDelay="0.00" arrival="181.00" arrivalLane="E_0_3_0" arrivalPos="486.40" arrivalSpeed="10.95" duration="87.00" routeLength="987.37" waitingTime="0.00" waitingCount="0" stopTime="0.00" timeLoss="5.19" rerouteNo="0" devices="tripinfo_V48" vType="CarA" speedFactor="0.88" vaporized=""/>
    <tripinfo id="V52" depart="99.00" departLane="E_1_0_0" departPos="0.00" departSpeed="10.00" departDelay="0.00" arrival="183.00" arrivalLane="E_0_3_0" arrivalPos="486.40" arrivalSpeed="13.63" duration="84.00" routeLength="987.37" waitingTime="0.00" waitingCount="0" stopTime="0.00" timeLoss="12.76" rerouteNo="0" devices="tripinfo_V52" vType="CarA" speedFactor="1.02" vaporized=""/>
    <tripinfo id="V63" depart="109.00" departLane="E_1_0_0" departPos="0.00" departSpeed="10.00" departDelay="0.00" arrival="187.00" arrivalLane="E_0_3_0" arrivalPos="486.40" arrivalSpeed="12.36" duration="78.00" routeLength="987.37" waitingTime="0.00" waitingCount="0" stopTime="0.00" timeLoss="5.16" rerouteNo="0" devices="tripinfo_V63" vType="CarA" speedFactor="0.99" vaporized=""/>
    <tripinfo id="V35" depart="66.00" departLane="E_2_0_2" departPos="0.00" departSpeed="10.00" departDelay="0.00" arrival="197.00" arrivalLane="E_0_3_0" arrivalPos="486.40" arrivalSpeed="13.41" duration="131.00" routeLength="997.31" waitingTime="51.00" waitingCount="1" stopTime="0.00" timeLoss="59.93" rerouteNo="0" devices="tripinfo_V35" vType="CarA" speedFactor="1.02" vaporized=""/>
    <tripinfo id="V59" depart="107.00" departLane="E_1_0_2" departPos="0.00" departSpeed="10.00" departDelay="0.00" arrival="199.00" arrivalLane="E_0_4_0" arrivalPos="486.40" arrivalSpeed="13.04" duration="92.00" routeLength="997.31" waitingTime="9.00" waitingCount="1" stopTime="0.00" timeLoss="17.38" rerouteNo="0" devices="tripinfo_V59" vType="CarA" speedFactor="0.97" vaporized=""/>
    <tripinfo id="V62" depart="108.00" departLane="E_1_0_2" departPos="0.00" departSpeed="10.00" departDelay="0.00" arrival="201.00" arrivalLane="E_0_4_0" arrivalPos="486.40" arrivalSpeed="12.78" duration="93.00" routeLength="997.31" waitingTime="7.00" waitingCount="1" stopTime="0.00" timeLoss="21.21" rerouteNo="0" devices="tripinfo_V62" vType="CarA" speedFactor="1.02" vaporized=""/>
    <tripinfo id="V47" depart="93.00" departLane="E_3_0_0" departPos="0.00" departSpeed="10.00" departDelay="0.00" arrival="202.00" arrivalLane="E_0_2_0" arrivalPos="486.40" arrivalSpeed="11.91" duration="109.00" routeLength="987.37" waitingTime="20.00" waitingCount="1" stopTime="0.00" timeLoss="28.84" rerouteNo="0" devices="tripinfo_V47" vType="CarA" speedFactor="0.90" vaporized=""/>
    <tripinfo id="V61" depart="107.00" departLane="E_3_0_0" departPos="0.00" departSpeed="10.00" departDelay="0.00" arrival="203.00" arrivalLane="E_0_2_0" arrivalPos="486.40" arrivalSpeed="14.58" duration="96.00" routeLength="987.37" waitingTime="14.00" waitingCount="1" stopTime="0.00" timeLoss="31.81" rerouteNo="0" devices="tripinfo_V61" vType="CarA" speedFactor="1.12" vaporized=""/>
    <tripinfo id="V24" depart="53.00" departLane="E_4_0_0" departPos="0.00" departSpeed="10.00" departDelay="0.00" arrival="205.00" arrivalLane="E_0_1_0" arrivalPos="486.40" arrivalSpeed="10.40" duration="152.00" routeLength="987.37" waitingTime="56.00" waitingCount="1" stopTime="0.00" timeLoss="65.07" rerouteNo="0" devices="tripinfo_V24" vType="CarA" speedFactor="0.83" vaporized=""/>
    <tripinfo id="V37" depart="69.00" departLane="E_4_0_0" departPos="0.00" departSpeed="10.00" departDelay="0.00" arrival="207.00" arrivalLane="E_0_1_0" arrivalPos="486.40" arrivalSpeed="15.57" duration="138.00" routeLength="987.37" waitingTime="54.00" waitingCount="1" stopTime="0.00" timeLoss="76.55" rerouteNo="0" devices="tripinfo_V37" vType="CarA" speedFactor="1.18" vaporized=""/>
    <tripinfo id="V49" depart="96.00" departLane="E_2_0_2" departPos="0.00" departSpeed="10.00" departDelay="0.00" arrival="207.00" arrivalLane="E_0_3_0" arrivalPos="486.40" arrivalSpeed="10.44" duration="111.00" routeLength="997.31" waitingTime="14.00" waitingCount="1" stopTime="0.00" timeLoss="25.38" rerouteNo="0" devices="tripinfo_V49" vType="CarA" speedFactor="0.85" vaporized=""/>
    <tripinfo id="V67" depart="125.00" departLane="E_4_0_2" departPos="0.00" departSpeed="10.00" departDelay="0.00" arrival="209.00" arrivalLane="E_0_2_0" arrivalPos="486.40" arrivalSpeed="11.78" duration="84.00" routeLength="997.31" waitingTime="0.00" waitingCount="0" stopTime="0.00" timeLoss="4.72" rerouteNo="0" devices="tripinfo_V67" vType="CarA" speedFactor="0.91" vaporized=""/>
    <tripinfo id="V66" depart="121.00" departLane="E_3_0_2" departPos="0.00" departSpeed="10.00" departDelay="0.00" arrival="210.00" arrivalLane="E_0_1_0" arrivalPos="486.40" arrivalSpeed="12.37" duration="89.00" routeLength="997.31" waitingTime="0.00" waitingCount="0" stopTime="0.00" timeLoss="8.71" rerouteNo="0" devices="tripinfo_V66" vType="CarA" speedFactor="0.91" vaporized=""/>
    <tripinfo id="V51" depart="98.00" departLane="E_2_0_2" departPos="0.00" departSpeed="10.00" departDelay="0.00" arrival="213.00" arrivalLane="E_0_3_0" arrivalPos="486.40" arrivalSpeed="15.12" duration="115.00" routeLength="997.31" waitingTime="30.00" waitingCount="2" stopTime="0.00" timeLoss="52.74" rerouteNo="0" devices="tripinfo_V51" vType="CarA" speedFactor="1.17" vaporized=""/>
    <tripinfo id="V73" depart="131.00" departLane="E_1_0_2" departPos="0.00" departSpeed="10.00" departDelay="0.00" arrival="217.00" arrivalLane="E_0_4_0" arrivalPos="486.40" arrivalSpeed="13.29" duration="86.00" routeLength="997.31" waitingTime="8.00" waitingCount="1" stopTime="0.00" timeLoss="16.98" rerouteNo="0" devices="tripinfo_V73" vType="CarA" speedFactor="1.06" vaporized=""/>
    <tripinfo id="V60" depart="107.00" departLane="E_2_0_2" departPos="0.00" departSpeed="10.00" departDelay="0.00" arrival="218.00" arrivalLane="E_0_3_0" arrivalPos="486.40" arrivalSpeed="13.61" duration="111.00" routeLength="997.31" waitingTime="28.00" waitingCount="2" stopTime="0.00" timeLoss="43.72" rerouteNo="0" devices="tripinfo_V60" vType="CarA" speedFactor="1.08" vaporized=""/>
    <tripinfo id="V41" depart="78.00" departLane="E_4_0_0" departPos="0.00" departSpeed="10.00" departDelay="0.00" arrival="220.00" arrivalLane="E_0_1_0" arrivalPos="486.40" arrivalSpeed="12.78" duration="142.00" routeLength="987.37" waitingTime="54.00" waitingCount="2" stopTime="0.00" timeLoss="66.79" rerouteNo="0" devices="tripinfo_V41" vType="CarA" speedFactor="0.96" vaporized=""/>
    <tripinfo id="V44" depart="88.00" departLane="E_4_0_0" departPos="0.00" departSpeed="10.00" departDelay="0.00" arrival="222.00" arrivalLane="E_0_1_0" arrivalPos="486.40" arrivalSpeed="13.83" duration="134.00" routeLength="987.37" waitingTime="49.00" waitingCount="2" stopTime="0.00" timeLoss="64.69" rerouteNo="0" devices="tripinfo_V44" vType="CarA" speedFactor="1.04" vaporized=""/>
    <tripinfo id="V74" depart="133.00" departLane="E_1_0_2" departPos="0.00" departSpeed="10.00" departDelay="1.00" arrival="223.00" arrivalLane="E_0_4_0" arrivalPos="486.40" arrivalSpeed="12.92" duration="90.00" routeLength="997.31" waitingTime="5.00" waitingCount="1" stopTime="0.00" timeLoss="13.50" rerouteNo="0" devices="tripinfo_V74" vType="CarA" speedFactor="0.96" vaporized=""/>
    <tripinfo id="V77" depart="141.00" departLane="E_1_0_2" departPos="0.00" departSpeed="10.00" departDelay="0.00" arrival="224.00" arrivalLane="E_0_4_0" arrivalPos="486.40" arrivalSpeed="13.34" duration="83.00" routeLength="997.31" waitingTime="0.00" waitingCount="0" stopTime="0.00" timeLoss="8.95" rerouteNo="0" devices="tripinfo_V77" vType="CarA" speedFactor="0.98" vaporized=""/>
    <tripinfo id="V72" depart="127.00" departLane="E_4_0_0" departPos="0.00" departSpeed="10.00" departDelay="0.00" arrival="225.00" arrivalLane="E_0_1_0" arrivalPos="486.40" arrivalSpeed="12.64" duration="98.00" routeLength="987.37" waitingTime="12.00" waitingCount="1" stopTime="0.00" timeLoss="21.09" rerouteNo="0" devices="tripinfo_V72" vType="CarA" speedFactor="0.94" vaporized=""/>
    <tripinfo id="V79" depart="142.00" departLane="E_1_0_2" departPos="0.00" departSpeed="10.00" departDelay="0.00" arrival="226.00" arrivalLane="E_0_4_0" arrivalPos="486.40" arrivalSpeed="15.06" duration="84.00" routeLength="997.31" waitingTime="0.00" waitingCount="0" stopTime="0.00" timeLoss="16.59" rerouteNo="0" devices="tripinfo_V79" vType="CarA" speedFactor="1.09" vaporized=""/>
    <tripinfo id="V88" depart="148.00" departLane="E_4_0_0" departPos="0.00" departSpeed="10.00" departDelay="0.00" arrival="226.00" arrivalLane="E_0_1_0" arrivalPos="486.40" arrivalSpeed="13.12" duration="78.00" routeLength="987.37" waitingTime="0.00" waitingCount="0" stopTime="0.00" timeLoss="6.94" rerouteNo="0" devices="tripinfo_V88" vType="CarA" speedFactor="1.01" vaporized=""/>
    <tripinfo id="V65" depart="118.00" departLane="E_2_0_2" departPos="0.00" departSpeed="10.00" departDelay="0.00" arrival="229.00" arrivalLane="E_0_3_0" arrivalPos="486.40" arrivalSpeed="11.71" duration="111.00" routeLength="997.31" waitingTime="13.00" waitingCount="1" stopTime="0.00" timeLoss="28.01" rerouteNo="0" devices="tripinfo_V65" vType="CarA" speedFactor="0.88" vaporized=""/>
    <tripinfo id="V89" depart="153.00" departLane="E_1_0_2" departPos="0.00" departSpeed="10.00" departDelay="0.00" arrival="229.00" arrivalLane="E_0_4_0" arrivalPos="486.40" arrivalSpeed="14.14" duration="76.00" routeLength="997.31" waitingTime="0.00" waitingCount="0" stopTime="0.00" timeLoss="4.36" rerouteNo="0" devices="tripinfo_V89" vType="CarA" speedFactor="1.02" vaporized=""/>
    <tripinfo id="V90" depart="155.00" departLane="E_2_0_2" departPos="0.00" departSpeed="10.00" departDelay="0.00" arrival="231.00" arrivalLane="E_0_3_0" arrivalPos="486.40" arrivalSpeed="13.17" duration="76.00" routeLength="997.31" waitingTime="0.00" waitingCount="0" stopTime="0.00" timeLoss="4.43" rerouteNo="0" devices="tripinfo_V90" vType="CarA" speedFactor="1.02" vaporized=""/>
    <tripinfo id="V94" depart="166.00" departLane="E_4_0_0" departPos="0.00" departSpeed="10.00" departDelay="0.00" arrival="237.00" arrivalLane="E_0_1_0" arrivalPos="486.40" arrivalSpeed="14.93" duration="71.00" routeLength="987.37" waitingTime="0.00" waitingCount="0" stopTime="0.00" timeLoss="4.89" rerouteNo="0" devices="tripinfo_V94" vType="CarA" speedFactor="1.09" vaporized=""/>
</tripinfos>
