<?xml version="1.0" encoding="UTF-8"?>

<!-- generated on 2023-05-23 00:09:31 by Eclipse SUMO GUI Version 1.16.0
<configuration xmlns:xsi="http://www.w3.org/2001/XMLSchema-instance" xsi:noNamespaceSchemaLocation="http://sumo.dlr.de/xsd/sumoConfiguration.xsd">

    <input>
        <net-file value="creators/sumo_files/app.net.xml"/>
        <route-files value="creators/sumo_files/app.rou.xml"/>
        <additional-files value="creators/sumo_files/app.program.xml"/>
    </input>

    <output>
        <tripinfo-output value="app.tripinfo.xml"/>
    </output>

    <time>
        <begin value="0"/>
        <end value="54900"/>
    </time>

    <processing>
        <time-to-teleport value="-1"/>
        <waiting-time-memory value="10000"/>
    </processing>

    <report>
        <verbose value="true"/>
        <no-step-log value="true"/>
    </report>

    <traci_server>
        <remote-port value="51009"/>
    </traci_server>

    <gui_only>
        <quit-on-end value="true"/>
        <start value="true"/>
    </gui_only>

</configuration>
-->

<tripinfos xmlns:xsi="http://www.w3.org/2001/XMLSchema-instance" xsi:noNamespaceSchemaLocation="http://sumo.dlr.de/xsd/tripinfo_file.xsd">
    <tripinfo id="I6" depart="0.00" departLane="E_1_0_0" departPos="5.10" departSpeed="0.00" departDelay="0.00" arrival="76.00" arrivalLane="E_0_3_0" arrivalPos="486.40" arrivalSpeed="13.77" duration="76.00" routeLength="982.27" waitingTime="0.00" waitingCount="0" stopTime="0.00" timeLoss="6.96" rerouteNo="0" devices="tripinfo_I6" vType="CarA" speedFactor="1.05" vaporized=""/>
    <tripinfo id="I13" depart="2.00" departLane="E_1_0_0" departPos="5.10" departSpeed="0.00" departDelay="2.00" arrival="77.00" arrivalLane="E_0_3_0" arrivalPos="486.40" arrivalSpeed="14.24" duration="75.00" routeLength="982.27" waitingTime="0.00" waitingCount="0" stopTime="0.00" timeLoss="11.07" rerouteNo="0" devices="tripinfo_I13" vType="CarA" speedFactor="1.12" vaporized=""/>
    <tripinfo id="I2" depart="0.00" departLane="E_2_0_0" departPos="5.10" departSpeed="0.00" departDelay="0.00" arrival="78.00" arrivalLane="E_0_4_0" arrivalPos="486.40" arrivalSpeed="13.83" duration="78.00" routeLength="982.27" waitingTime="0.00" waitingCount="0" stopTime="0.00" timeLoss="7.55" rerouteNo="0" devices="tripinfo_I2" vType="CarA" speedFactor="1.01" vaporized=""/>
    <tripinfo id="I12" depart="6.00" departLane="E_2_0_0" departPos="5.10" departSpeed="0.00" departDelay="6.00" arrival="81.00" arrivalLane="E_0_1_0" arrivalPos="486.40" arrivalSpeed="14.45" duration="75.00" routeLength="995.12" waitingTime="0.00" waitingCount="0" stopTime="0.00" timeLoss="6.56" rerouteNo="0" devices="tripinfo_I12" vType="CarA" speedFactor="1.05" vaporized=""/>
    <tripinfo id="I14" depart="5.00" departLane="E_1_0_0" departPos="5.10" departSpeed="0.00" departDelay="5.00" arrival="84.00" arrivalLane="E_0_2_0" arrivalPos="486.40" arrivalSpeed="13.15" duration="79.00" routeLength="995.12" waitingTime="0.00" waitingCount="0" stopTime="0.00" timeLoss="6.27" rerouteNo="0" devices="tripinfo_I14" vType="CarA" speedFactor="0.99" vaporized=""/>
    <tripinfo id="I7" depart="2.00" departLane="E_2_0_0" departPos="5.10" departSpeed="0.00" departDelay="2.00" arrival="92.00" arrivalLane="E_0_4_0" arrivalPos="486.40" arrivalSpeed="11.44" duration="90.00" routeLength="982.27" waitingTime="0.00" waitingCount="0" stopTime="0.00" timeLoss="8.20" rerouteNo="0" devices="tripinfo_I7" vType="CarA" speedFactor="0.89" vaporized=""/>
    <tripinfo id="I15" depart="9.00" departLane="E_2_0_0" departPos="5.10" departSpeed="0.00" departDelay="9.00" arrival="95.00" arrivalLane="E_0_4_0" arrivalPos="486.40" arrivalSpeed="12.14" duration="86.00" routeLength="982.27" waitingTime="0.00" waitingCount="0" stopTime="0.00" timeLoss="8.13" rerouteNo="0" devices="tripinfo_I15" vType="CarA" speedFactor="0.93" vaporized=""/>
    <tripinfo id="I16" depart="7.00" departLane="E_1_0_0" departPos="5.10" departSpeed="0.00" departDelay="7.00" arrival="96.00" arrivalLane="E_0_2_0" arrivalPos="486.40" arrivalSpeed="11.48" duration="89.00" routeLength="995.12" waitingTime="0.00" waitingCount="0" stopTime="0.00" timeLoss="7.39" rerouteNo="0" devices="tripinfo_I16" vType="CarA" speedFactor="0.88" vaporized=""/>
    <tripinfo id="I18" depart="9.00" departLane="E_1_0_0" departPos="5.10" departSpeed="0.00" departDelay="9.00" arrival="98.00" arrivalLane="E_0_2_0" arrivalPos="486.40" arrivalSpeed="12.91" duration="89.00" routeLength="995.12" waitingTime="0.00" waitingCount="0" stopTime="0.00" timeLoss="11.89" rerouteNo="0" devices="tripinfo_I18" vType="CarA" speedFactor="0.94" vaporized=""/>
    <tripinfo id="V4939" depart="24.00" departLane="E_2_0_0" departPos="0.00" departSpeed="10.00" departDelay="0.00" arrival="98.00" arrivalLane="E_0_4_0" arrivalPos="486.40" arrivalSpeed="14.03" duration="74.00" routeLength="987.37" waitingTime="0.00" waitingCount="0" stopTime="0.00" timeLoss="4.54" rerouteNo="0" devices="tripinfo_V4939" vType="CarA" speedFactor="1.05" vaporized=""/>
    <tripinfo id="V4933" depart="2.00" departLane="E_2_0_2" departPos="0.00" departSpeed="10.00" departDelay="0.00" arrival="104.00" arrivalLane="E_0_3_0" arrivalPos="486.40" arrivalSpeed="14.28" duration="102.00" routeLength="997.31" waitingTime="27.00" waitingCount="1" stopTime="0.00" timeLoss="33.91" rerouteNo="0" devices="tripinfo_V4933" vType="CarA" speedFactor="1.06" vaporized=""/>
    <tripinfo id="V4936" depart="11.00" departLane="E_1_0_2" departPos="0.00" departSpeed="10.00" departDelay="0.00" arrival="104.00" arrivalLane="E_0_4_0" arrivalPos="486.40" arrivalSpeed="13.69" duration="93.00" routeLength="997.31" waitingTime="18.00" waitingCount="1" stopTime="0.00" timeLoss="25.33" rerouteNo="0" devices="tripinfo_V4936" vType="CarA" speedFactor="1.08" vaporized=""/>
    <tripinfo id="I11" depart="4.00" departLane="E_2_0_0" departPos="5.10" departSpeed="0.00" departDelay="4.00" arrival="108.00" arrivalLane="E_0_3_0" arrivalPos="486.40" arrivalSpeed="12.92" duration="104.00" routeLength="992.21" waitingTime="22.00" waitingCount="1" stopTime="0.00" timeLoss="33.03" rerouteNo="0" devices="tripinfo_I11" vType="CarA" speedFactor="1.03" vaporized=""/>
    <tripinfo id="I1" depart="2.00" departLane="E_3_0_0" departPos="5.10" departSpeed="0.00" departDelay="2.00" arrival="109.00" arrivalLane="E_0_2_0" arrivalPos="486.40" arrivalSpeed="12.46" duration="107.00" routeLength="982.27" waitingTime="19.00" waitingCount="1" stopTime="0.00" timeLoss="30.41" rerouteNo="0" devices="tripinfo_I1" vType="CarA" speedFactor="0.94" vaporized=""/>
    <tripinfo id="I8" depart="3.00" departLane="E_4_0_0" departPos="5.10" departSpeed="0.00" departDelay="3.00" arrival="109.00" arrivalLane="E_0_1_0" arrivalPos="486.40" arrivalSpeed="12.56" duration="106.00" routeLength="982.27" waitingTime="20.00" waitingCount="1" stopTime="0.00" timeLoss="29.63" rerouteNo="0" devices="tripinfo_I8" vType="CarA" speedFactor="0.94" vaporized=""/>
    <tripinfo id="V4944" depart="27.00" departLane="E_3_0_0" departPos="0.00" departSpeed="10.00" departDelay="0.00" arrival="110.00" arrivalLane="E_0_2_0" arrivalPos="486.40" arrivalSpeed="13.03" duration="83.00" routeLength="987.37" waitingTime="0.00" waitingCount="0" stopTime="0.00" timeLoss="13.08" rerouteNo="0" devices="tripinfo_V4944" vType="CarA" speedFactor="1.03" vaporized=""/>
    <tripinfo id="I10" depart="7.00" departLane="E_4_0_0" departPos="5.10" departSpeed="0.00" departDelay="7.00" arrival="111.00" arrivalLane="E_0_1_0" arrivalPos="486.40" arrivalSpeed="14.26" duration="104.00" routeLength="982.27" waitingTime="19.00" waitingCount="1" stopTime="0.00" timeLoss="37.77" rerouteNo="0" devices="tripinfo_I10" vType="CarA" speedFactor="1.09" vaporized=""/>
    <tripinfo id="I17" depart="9.00" departLane="E_4_0_0" departPos="5.10" departSpeed="0.00" departDelay="9.00" arrival="113.00" arrivalLane="E_0_1_0" arrivalPos="486.40" arrivalSpeed="11.89" duration="104.00" routeLength="982.27" waitingTime="17.00" waitingCount="1" stopTime="0.00" timeLoss="27.72" rerouteNo="0" devices="tripinfo_I17" vType="CarA" speedFactor="0.94" vaporized=""/>
    <tripinfo id="V4934" depart="5.00" departLane="E_2_0_2" departPos="0.00" departSpeed="10.00" departDelay="0.00" arrival="113.00" arrivalLane="E_0_3_0" arrivalPos="486.40" arrivalSpeed="11.80" duration="108.00" routeLength="997.31" waitingTime="20.00" waitingCount="1" stopTime="0.00" timeLoss="30.39" rerouteNo="0" devices="tripinfo_V4934" vType="CarA" speedFactor="0.94" vaporized=""/>
    <tripinfo id="V4943" depart="27.00" departLane="E_2_0_2" departPos="0.00" departSpeed="10.00" departDelay="0.00" arrival="114.00" arrivalLane="E_0_3_0" arrivalPos="486.40" arrivalSpeed="14.18" duration="87.00" routeLength="997.31" waitingTime="6.00" waitingCount="1" stopTime="0.00" timeLoss="20.48" rerouteNo="0" devices="tripinfo_V4943" vType="CarA" speedFactor="1.09" vaporized=""/>
    <tripinfo id="V4935" depart="13.00" departLane="E_4_0_0" departPos="0.00" departSpeed="10.00" departDelay="3.00" arrival="115.00" arrivalLane="E_0_1_0" arrivalPos="486.40" arrivalSpeed="12.59" duration="102.00" routeLength="987.37" waitingTime="16.00" waitingCount="1" stopTime="0.00" timeLoss="30.05" rerouteNo="0" devices="tripinfo_V4935" vType="CarA" speedFactor="1.01" vaporized=""/>
    <tripinfo id="V4941" depart="25.00" departLane="E_4_0_0" departPos="0.00" departSpeed="10.00" departDelay="0.00" arrival="117.00" arrivalLane="E_0_1_0" arrivalPos="486.40" arrivalSpeed="11.98" duration="92.00" routeLength="987.37" waitingTime="3.00" waitingCount="1" stopTime="0.00" timeLoss="15.22" rerouteNo="0" devices="tripinfo_V4941" vType="CarA" speedFactor="0.94" vaporized=""/>
    <tripinfo id="V4945" depart="28.00" departLane="E_4_0_0" departPos="0.00" departSpeed="10.00" departDelay="0.00" arrival="119.00" arrivalLane="E_0_1_0" arrivalPos="486.40" arrivalSpeed="13.16" duration="91.00" routeLength="987.37" waitingTime="2.00" waitingCount="1" stopTime="0.00" timeLoss="21.69" rerouteNo="0" devices="tripinfo_V4945" vType="CarA" speedFactor="1.05" vaporized=""/>
    <tripinfo id="V4948" depart="36.00" departLane="E_2_0_2" departPos="0.00" departSpeed="10.00" departDelay="0.00" arrival="120.00" arrivalLane="E_0_3_0" arrivalPos="486.40" arrivalSpeed="12.62" duration="84.00" routeLength="997.31" waitingTime="0.00" waitingCount="0" stopTime="0.00" timeLoss="5.16" rerouteNo="0" devices="tripinfo_V4948" vType="CarA" speedFactor="0.93" vaporized=""/>
    <tripinfo id="V4950" depart="38.00" departLane="E_3_0_0" departPos="0.00" departSpeed="10.00" departDelay="0.00" arrival="120.00" arrivalLane="E_0_2_0" arrivalPos="486.40" arrivalSpeed="11.91" duration="82.00" routeLength="987.37" waitingTime="0.00" waitingCount="0" stopTime="0.00" timeLoss="5.07" rerouteNo="0" devices="tripinfo_V4950" vType="CarA" speedFactor="0.94" vaporized=""/>
    <tripinfo id="V4951" depart="38.00" departLane="E_4_0_0" departPos="0.00" departSpeed="10.00" departDelay="0.00" arrival="121.00" arrivalLane="E_0_1_0" arrivalPos="486.40" arrivalSpeed="12.78" duration="83.00" routeLength="987.37" waitingTime="0.00" waitingCount="0" stopTime="0.00" timeLoss="6.15" rerouteNo="0" devices="tripinfo_V4951" vType="CarA" speedFactor="0.94" vaporized=""/>
    <tripinfo id="V4952" depart="39.00" departLane="E_2_0_2" departPos="0.00" departSpeed="10.00" departDelay="0.00" arrival="121.00" arrivalLane="E_0_3_0" arrivalPos="486.40" arrivalSpeed="15.22" duration="82.00" routeLength="997.31" waitingTime="0.00" waitingCount="0" stopTime="0.00" timeLoss="19.41" rerouteNo="0" devices="tripinfo_V4952" vType="CarA" speedFactor="1.16" vaporized=""/>
    <tripinfo id="V4955" depart="43.00" departLane="E_4_0_0" departPos="0.00" departSpeed="10.00" departDelay="0.00" arrival="123.00" arrivalLane="E_0_1_0" arrivalPos="486.40" arrivalSpeed="12.61" duration="80.00" routeLength="987.37" waitingTime="0.00" waitingCount="0" stopTime="0.00" timeLoss="5.79" rerouteNo="0" devices="tripinfo_V4955" vType="CarA" speedFactor="0.97" vaporized=""/>
    <tripinfo id="V4961" depart="49.00" departLane="E_4_0_0" departPos="0.00" departSpeed="10.00" departDelay="0.00" arrival="124.00" arrivalLane="E_0_1_0" arrivalPos="486.40" arrivalSpeed="13.38" duration="75.00" routeLength="987.37" waitingTime="0.00" waitingCount="0" stopTime="0.00" timeLoss="11.76" rerouteNo="0" devices="tripinfo_V4961" vType="CarA" speedFactor="1.13" vaporized=""/>
    <tripinfo id="I0" depart="0.00" departLane="E_3_0_0" departPos="5.10" departSpeed="0.00" departDelay="0.00" arrival="138.00" arrivalLane="E_0_1_0" arrivalPos="486.40" arrivalSpeed="14.69" duration="138.00" routeLength="992.21" waitingTime="58.00" waitingCount="1" stopTime="0.00" timeLoss="69.84" rerouteNo="0" devices="tripinfo_I0" vType="CarA" speedFactor="1.06" vaporized=""/>
    <tripinfo id="I4" depart="0.00" departLane="E_4_0_0" departPos="5.10" departSpeed="0.00" departDelay="0.00" arrival="139.00" arrivalLane="E_0_2_0" arrivalPos="486.40" arrivalSpeed="13.51" duration="139.00" routeLength="992.21" waitingTime="56.00" waitingCount="1" stopTime="0.00" timeLoss="68.60" rerouteNo="0" devices="tripinfo_I4" vType="CarA" speedFactor="1.03" vaporized=""/>
    <tripinfo id="I3" depart="4.00" departLane="E_3_0_0" departPos="5.10" departSpeed="0.00" departDelay="4.00" arrival="140.00" arrivalLane="E_0_1_0" arrivalPos="486.40" arrivalSpeed="13.91" duration="136.00" routeLength="992.21" waitingTime="55.00" waitingCount="1" stopTime="0.00" timeLoss="68.82" rerouteNo="0" devices="tripinfo_I3" vType="CarA" speedFactor="1.08" vaporized=""/>
    <tripinfo id="I19" depart="9.00" departLane="E_3_0_0" departPos="5.10" departSpeed="0.00" departDelay="9.00" arrival="141.00" arrivalLane="E_0_1_0" arrivalPos="486.40" arrivalSpeed="15.72" duration="132.00" routeLength="992.21" waitingTime="55.00" waitingCount="1" stopTime="0.00" timeLoss="69.72" rerouteNo="0" devices="tripinfo_I19" vType="CarA" speedFactor="1.16" vaporized=""/>
    <tripinfo id="V4957" depart="48.00" departLane="E_1_0_2" departPos="0.00" departSpeed="10.00" departDelay="0.00" arrival="142.00" arrivalLane="E_0_4_0" arrivalPos="486.40" arrivalSpeed="11.29" duration="94.00" routeLength="997.31" waitingTime="0.00" waitingCount="0" stopTime="0.00" timeLoss="6.29" rerouteNo="0" devices="tripinfo_V4957" vType="CarA" speedFactor="0.83" vaporized=""/>
    <tripinfo id="V4968" depart="68.00" departLane="E_1_0_0" departPos="0.00" departSpeed="10.00" departDelay="0.00" arrival="143.00" arrivalLane="E_0_3_0" arrivalPos="486.40" arrivalSpeed="12.89" duration="75.00" routeLength="987.37" waitingTime="0.00" waitingCount="0" stopTime="0.00" timeLoss="4.34" rerouteNo="0" devices="tripinfo_V4968" vType="CarA" speedFactor="1.02" vaporized=""/>
    <tripinfo id="I9" depart="5.00" departLane="E_4_0_0" departPos="5.10" departSpeed="0.00" departDelay="5.00" arrival="148.00" arrivalLane="E_0_2_0" arrivalPos="486.40" arrivalSpeed="10.80" duration="143.00" routeLength="992.21" waitingTime="47.00" waitingCount="1" stopTime="0.00" timeLoss="58.83" rerouteNo="0" devices="tripinfo_I9" vType="CarA" speedFactor="0.86" vaporized=""/>
    <tripinfo id="V4969" depart="69.00" departLane="E_1_0_0" departPos="0.00" departSpeed="10.00" departDelay="0.00" arrival="149.00" arrivalLane="E_0_3_0" arrivalPos="486.40" arrivalSpeed="12.30" duration="80.00" routeLength="987.37" waitingTime="0.00" waitingCount="0" stopTime="0.00" timeLoss="5.31" rerouteNo="0" devices="tripinfo_V4969" vType="CarA" speedFactor="0.97" vaporized=""/>
    <tripinfo id="V4937" depart="16.00" departLane="E_4_0_2" departPos="0.00" departSpeed="10.00" departDelay="0.00" arrival="150.00" arrivalLane="E_0_2_0" arrivalPos="486.40" arrivalSpeed="14.29" duration="134.00" routeLength="997.31" waitingTime="46.00" waitingCount="1" stopTime="0.00" timeLoss="63.14" rerouteNo="0" devices="tripinfo_V4937" vType="CarA" speedFactor="1.03" vaporized=""/>
    <tripinfo id="V4971" depart="73.00" departLane="E_1_0_0" departPos="0.00" departSpeed="10.00" departDelay="0.00" arrival="150.00" arrivalLane="E_0_3_0" arrivalPos="486.40" arrivalSpeed="14.70" duration="77.00" routeLength="987.37" waitingTime="0.00" waitingCount="0" stopTime="0.00" timeLoss="11.37" rerouteNo="0" devices="tripinfo_V4971" vType="CarA" speedFactor="1.10" vaporized=""/>
    <tripinfo id="V4976" depart="78.00" departLane="E_4_0_2" departPos="0.00" departSpeed="10.00" departDelay="0.00" arrival="152.00" arrivalLane="E_0_2_0" arrivalPos="486.40" arrivalSpeed="13.82" duration="74.00" routeLength="997.31" waitingTime="0.00" waitingCount="0" stopTime="0.00" timeLoss="4.06" rerouteNo="0" devices="tripinfo_V4976" vType="CarA" speedFactor="1.04" vaporized=""/>
    <tripinfo id="I5" depart="7.00" departLane="E_3_0_0" departPos="5.10" departSpeed="0.00" departDelay="7.00" arrival="155.00" arrivalLane="E_0_1_0" arrivalPos="486.40" arrivalSpeed="11.19" duration="148.00" routeLength="992.21" waitingTime="48.00" waitingCount="1" stopTime="0.00" timeLoss="60.50" rerouteNo="0" devices="tripinfo_I5" vType="CarA" speedFactor="0.83" vaporized=""/>
    <tripinfo id="V4953" depart="40.00" departLane="E_3_0_2" departPos="0.00" departSpeed="10.00" departDelay="0.00" arrival="156.00" arrivalLane="E_0_1_0" arrivalPos="486.40" arrivalSpeed="11.88" duration="116.00" routeLength="997.31" waitingTime="24.00" waitingCount="1" stopTime="0.00" timeLoss="44.64" rerouteNo="0" devices="tripinfo_V4953" vType="CarA" speedFactor="1.02" vaporized=""/>
    <tripinfo id="V4960" depart="49.00" departLane="E_3_0_2" departPos="0.00" departSpeed="10.00" departDelay="0.00" arrival="158.00" arrivalLane="E_0_1_0" arrivalPos="486.40" arrivalSpeed="12.71" duration="109.00" routeLength="997.31" waitingTime="14.00" waitingCount="1" stopTime="0.00" timeLoss="31.85" rerouteNo="0" devices="tripinfo_V4960" vType="CarA" speedFactor="0.95" vaporized=""/>
    <tripinfo id="V4985" depart="86.00" departLane="E_4_0_2" departPos="0.00" departSpeed="10.00" departDelay="0.00" arrival="162.00" arrivalLane="E_0_2_0" arrivalPos="486.40" arrivalSpeed="13.70" duration="76.00" routeLength="997.31" waitingTime="0.00" waitingCount="0" stopTime="0.00" timeLoss="4.54" rerouteNo="0" devices="tripinfo_V4985" vType="CarA" speedFactor="1.02" vaporized=""/>
    <tripinfo id="V4991" depart="91.00" departLane="E_2_0_0" departPos="0.00" departSpeed="10.00" departDelay="0.00" arrival="167.00" arrivalLane="E_0_4_0" arrivalPos="486.40" arrivalSpeed="13.57" duration="76.00" routeLength="987.37" waitingTime="0.00" waitingCount="0" stopTime="0.00" timeLoss="5.04" rerouteNo="0" devices="tripinfo_V4991" vType="CarA" speedFactor="1.02" vaporized=""/>
    <tripinfo id="V4980" depart="82.00" departLane="E_3_0_2" departPos="0.00" departSpeed="10.00" departDelay="0.00" arrival="169.00" arrivalLane="E_0_1_0" arrivalPos="486.40" arrivalSpeed="11.52" duration="87.00" routeLength="997.31" waitingTime="0.00" waitingCount="0" stopTime="0.00" timeLoss="5.95" rerouteNo="0" devices="tripinfo_V4980" vType="CarA" speedFactor="0.90" vaporized=""/>
    <tripinfo id="V4986" depart="87.00" departLane="E_1_0_2" departPos="0.00" departSpeed="10.00" departDelay="0.00" arrival="170.00" arrivalLane="E_0_4_0" arrivalPos="486.40" arrivalSpeed="14.61" duration="83.00" routeLength="997.31" waitingTime="7.00" waitingCount="1" stopTime="0.00" timeLoss="16.00" rerouteNo="0" devices="tripinfo_V4986" vType="CarA" speedFactor="1.10" vaporized=""/>
    <tripinfo id="V4988" depart="87.00" departLane="E_3_0_2" departPos="0.00" departSpeed="10.00" departDelay="0.00" arrival="170.00" arrivalLane="E_0_1_0" arrivalPos="486.40" arrivalSpeed="13.26" duration="83.00" routeLength="997.31" waitingTime="0.00" waitingCount="0" stopTime="0.00" timeLoss="10.33" rerouteNo="0" devices="tripinfo_V4988" vType="CarA" speedFactor="1.00" vaporized=""/>
    <tripinfo id="V4987" depart="87.00" departLane="E_3_0_0" departPos="0.00" departSpeed="10.00" departDelay="0.00" arrival="172.00" arrivalLane="E_0_2_0" arrivalPos="486.40" arrivalSpeed="13.91" duration="85.00" routeLength="987.37" waitingTime="5.00" waitingCount="1" stopTime="0.00" timeLoss="13.12" rerouteNo="0" devices="tripinfo_V4987" vType="CarA" speedFactor="1.00" vaporized=""/>
    <tripinfo id="V4990" depart="89.00" departLane="E_3_0_2" departPos="0.00" departSpeed="10.00" departDelay="0.00" arrival="172.00" arrivalLane="E_0_1_0" arrivalPos="486.40" arrivalSpeed="15.07" duration="83.00" routeLength="997.31" waitingTime="0.00" waitingCount="0" stopTime="0.00" timeLoss="19.11" rerouteNo="0" devices="tripinfo_V4990" vType="CarA" speedFactor="1.14" vaporized=""/>
    <tripinfo id="V4975" depart="77.00" departLane="E_4_0_0" departPos="0.00" departSpeed="10.00" departDelay="0.00" arrival="173.00" arrivalLane="E_0_1_0" arrivalPos="486.40" arrivalSpeed="14.49" duration="96.00" routeLength="987.37" waitingTime="17.00" waitingCount="1" stopTime="0.00" timeLoss="30.14" rerouteNo="0" devices="tripinfo_V4975" vType="CarA" speedFactor="1.09" vaporized=""/>
    <tripinfo id="V4979" depart="81.00" departLane="E_2_0_2" departPos="0.00" departSpeed="10.00" departDelay="0.00" arrival="173.00" arrivalLane="E_0_3_0" arrivalPos="486.40" arrivalSpeed="12.68" duration="92.00" routeLength="997.31" waitingTime="11.00" waitingCount="1" stopTime="0.00" timeLoss="19.28" rerouteNo="0" devices="tripinfo_V4979" vType="CarA" speedFactor="1.00" vaporized=""/>
    <tripinfo id="V4981" depart="82.00" departLane="E_4_0_0" departPos="0.00" departSpeed="10.00" departDelay="0.00" arrival="180.00" arrivalLane="E_0_1_0" arrivalPos="486.40" arrivalSpeed="11.71" duration="98.00" routeLength="987.37" waitingTime="4.00" waitingCount="1" stopTime="0.00" timeLoss="15.42" rerouteNo="0" devices="tripinfo_V4981" vType="CarA" speedFactor="0.88" vaporized=""/>
    <tripinfo id="V4992" depart="91.00" departLane="E_4_0_0" departPos="0.00" departSpeed="10.00" departDelay="0.00" arrival="181.00" arrivalLane="E_0_1_0" arrivalPos="486.40" arrivalSpeed="12.59" duration="90.00" routeLength="987.37" waitingTime="3.00" waitingCount="1" stopTime="0.00" timeLoss="15.79" rerouteNo="0" devices="tripinfo_V4992" vType="CarA" speedFactor="0.97" vaporized=""/>
    <tripinfo id="V4983" depart="85.00" departLane="E_1_0_2" departPos="0.00" departSpeed="10.00" departDelay="0.00" arrival="182.00" arrivalLane="E_0_4_0" arrivalPos="486.40" arrivalSpeed="11.73" duration="97.00" routeLength="997.31" waitingTime="2.00" waitingCount="1" stopTime="0.00" timeLoss="11.41" rerouteNo="0" devices="tripinfo_V4983" vType="CarA" speedFactor="0.85" vaporized=""/>
    <tripinfo id="V4989" depart="89.00" departLane="E_1_0_2" departPos="0.00" departSpeed="10.00" departDelay="1.00" arrival="183.00" arrivalLane="E_0_4_0" arrivalPos="486.40" arrivalSpeed="12.33" duration="94.00" routeLength="997.31" waitingTime="2.00" waitingCount="1" stopTime="0.00" timeLoss="13.13" rerouteNo="0" devices="tripinfo_V4989" vType="CarA" speedFactor="0.90" vaporized=""/>
    <tripinfo id="V4995" depart="100.00" departLane="E_2_0_0" departPos="0.00" departSpeed="10.00" departDelay="0.00" arrival="185.00" arrivalLane="E_0_4_0" arrivalPos="486.40" arrivalSpeed="13.10" duration="85.00" routeLength="987.37" waitingTime="6.00" waitingCount="1" stopTime="0.00" timeLoss="13.93" rerouteNo="0" devices="tripinfo_V4995" vType="CarA" speedFactor="1.02" vaporized=""/>
    <tripinfo id="V5007" depart="117.00" departLane="E_2_0_0" departPos="0.00" departSpeed="10.00" departDelay="0.00" arrival="198.00" arrivalLane="E_0_4_0" arrivalPos="486.40" arrivalSpeed="12.67" duration="81.00" routeLength="987.37" waitingTime="0.00" waitingCount="0" stopTime="0.00" timeLoss="5.11" rerouteNo="0" devices="tripinfo_V5007" vType="CarA" speedFactor="0.96" vaporized=""/>
    <tripinfo id="V5011" depart="122.00" departLane="E_2_0_0" departPos="0.00" departSpeed="10.00" departDelay="0.00" arrival="199.00" arrivalLane="E_0_4_0" arrivalPos="486.40" arrivalSpeed="12.79" duration="77.00" routeLength="987.37" waitingTime="0.00" waitingCount="0" stopTime="0.00" timeLoss="5.52" rerouteNo="0" devices="tripinfo_V5011" vType="CarA" speedFactor="1.01" vaporized=""/>
    <tripinfo id="V5008" depart="119.00" departLane="E_1_0_2" departPos="0.00" departSpeed="10.00" departDelay="0.00" arrival="205.00" arrivalLane="E_0_4_0" arrivalPos="486.40" arrivalSpeed="13.05" duration="86.00" routeLength="997.31" waitingTime="3.00" waitingCount="1" stopTime="0.00" timeLoss="11.65" rerouteNo="0" devices="tripinfo_V5008" vType="CarA" speedFactor="0.98" vaporized=""/>
    <tripinfo id="V5013" depart="125.00" departLane="E_1_0_2" departPos="0.00" departSpeed="10.00" departDelay="0.00" arrival="206.00" arrivalLane="E_0_4_0" arrivalPos="486.40" arrivalSpeed="14.33" duration="81.00" routeLength="997.31" waitingTime="0.00" waitingCount="0" stopTime="0.00" timeLoss="10.53" rerouteNo="0" devices="tripinfo_V5013" vType="CarA" speedFactor="1.03" vaporized=""/>
    <tripinfo id="V4963" depart="51.00" departLane="E_1_0_1" departPos="0.00" departSpeed="10.00" departDelay="0.00" arrival="207.00" arrivalLane="E_0_2_0" arrivalPos="486.40" arrivalSpeed="15.29" duration="156.00" routeLength="1000.22" waitingTime="85.00" waitingCount="1" stopTime="0.00" timeLoss="94.02" rerouteNo="0" devices="tripinfo_V4963" vType="CarA" speedFactor="1.18" vaporized=""/>
    <tripinfo id="V5005" depart="114.00" departLane="E_2_0_2" departPos="0.00" departSpeed="10.00" departDelay="0.00" arrival="207.00" arrivalLane="E_0_3_0" arrivalPos="486.40" arrivalSpeed="12.00" duration="93.00" routeLength="997.31" waitingTime="7.00" waitingCount="1" stopTime="0.00" timeLoss="15.17" rerouteNo="0" devices="tripinfo_V5005" vType="CarA" speedFactor="0.94" vaporized=""/>
    <tripinfo id="V5009" depart="119.00" departLane="E_2_0_2" departPos="0.00" departSpeed="10.00" departDelay="0.00" arrival="208.00" arrivalLane="E_0_3_0" arrivalPos="486.40" arrivalSpeed="14.23" duration="89.00" routeLength="997.31" waitingTime="6.00" waitingCount="1" stopTime="0.00" timeLoss="18.44" rerouteNo="0" devices="tripinfo_V5009" vType="CarA" speedFactor="1.03" vaporized=""/>
    <tripinfo id="V5012" depart="124.00" departLane="E_2_0_0" departPos="0.00" departSpeed="10.00" departDelay="1.00" arrival="208.00" arrivalLane="E_0_4_0" arrivalPos="486.40" arrivalSpeed="14.48" duration="84.00" routeLength="987.37" waitingTime="6.00" waitingCount="1" stopTime="0.00" timeLoss="17.36" rerouteNo="0" devices="tripinfo_V5012" vType="CarA" speedFactor="1.09" vaporized=""/>
    <tripinfo id="V4998" depart="103.00" departLane="E_4_0_0" departPos="0.00" departSpeed="10.00" departDelay="0.00" arrival="209.00" arrivalLane="E_0_1_0" arrivalPos="486.40" arrivalSpeed="11.07" duration="106.00" routeLength="987.37" waitingTime="14.00" waitingCount="1" stopTime="0.00" timeLoss="24.07" rerouteNo="0" devices="tripinfo_V4998" vType="CarA" speedFactor="0.88" vaporized=""/>
    <tripinfo id="V5015" depart="129.00" departLane="E_4_0_0" departPos="0.00" departSpeed="10.00" departDelay="0.00" arrival="210.00" arrivalLane="E_0_1_0" arrivalPos="486.40" arrivalSpeed="13.27" duration="81.00" routeLength="987.37" waitingTime="0.00" waitingCount="0" stopTime="0.00" timeLoss="10.10" rerouteNo="0" devices="tripinfo_V5015" vType="CarA" speedFactor="1.02" vaporized=""/>
    <tripinfo id="V5014" depart="127.00" departLane="E_1_0_0" departPos="0.00" departSpeed="10.00" departDelay="0.00" arrival="211.00" arrivalLane="E_0_3_0" arrivalPos="486.40" arrivalSpeed="12.79" duration="84.00" routeLength="987.37" waitingTime="4.00" waitingCount="1" stopTime="0.00" timeLoss="12.06" rerouteNo="0" devices="tripinfo_V5014" vType="CarA" speedFactor="1.00" vaporized=""/>
    <tripinfo id="V5017" depart="134.00" departLane="E_1_0_0" departPos="0.00" departSpeed="10.00" departDelay="0.00" arrival="213.00" arrivalLane="E_0_3_0" arrivalPos="486.40" arrivalSpeed="15.09" duration="79.00" routeLength="987.37" waitingTime="3.00" waitingCount="1" stopTime="0.00" timeLoss="15.71" rerouteNo="0" devices="tripinfo_V5017" vType="CarA" speedFactor="1.15" vaporized=""/>
    <tripinfo id="V4967" depart="65.00" departLane="E_1_0_1" departPos="0.00" departSpeed="10.00" departDelay="0.00" arrival="214.00" arrivalLane="E_0_2_0" arrivalPos="486.40" arrivalSpeed="13.57" duration="149.00" routeLength="1000.22" waitingTime="68.00" waitingCount="1" stopTime="0.00" timeLoss="76.21" rerouteNo="0" devices="tripinfo_V4967" vType="CarA" speedFactor="0.99" vaporized=""/>
    <tripinfo id="V5018" depart="136.00" departLane="E_2_0_0" departPos="0.00" departSpeed="10.00" departDelay="0.00" arrival="215.00" arrivalLane="E_0_4_0" arrivalPos="486.40" arrivalSpeed="12.45" duration="79.00" routeLength="987.37" waitingTime="0.00" waitingCount="0" stopTime="0.00" timeLoss="5.23" rerouteNo="0" devices="tripinfo_V5018" vType="CarA" speedFactor="0.98" vaporized=""/>
    <tripinfo id="V5020" depart="138.00" departLane="E_2_0_0" departPos="0.00" departSpeed="10.00" departDelay="0.00" arrival="217.00" arrivalLane="E_0_4_0" arrivalPos="486.40" arrivalSpeed="13.09" duration="79.00" routeLength="987.37" waitingTime="0.00" waitingCount="0" stopTime="0.00" timeLoss="9.39" rerouteNo="0" devices="tripinfo_V5020" vType="CarA" speedFactor="1.04" vaporized=""/>
    <tripinfo id="V4938" depart="21.00" departLane="E_2_0_1" departPos="0.00" departSpeed="10.00" departDelay="0.00" arrival="220.00" arrivalLane="E_0_1_0" arrivalPos="486.40" arrivalSpeed="10.27" duration="199.00" routeLength="1000.22" waitingTime="101.00" waitingCount="1" stopTime="0.00" timeLoss="111.72" rerouteNo="0" devices="tripinfo_V4938" vType="CarA" speedFactor="0.83" vaporized=""/>
    <tripinfo id="V5021" depart="143.00" departLane="E_1_0_2" departPos="0.00" departSpeed="10.00" departDelay="0.00" arrival="220.00" arrivalLane="E_0_4_0" arrivalPos="486.40" arrivalSpeed="13.55" duration="77.00" routeLength="997.31" waitingTime="0.00" waitingCount="0" stopTime="0.00" timeLoss="4.03" rerouteNo="0" devices="tripinfo_V5021" vType="CarA" speedFactor="1.01" vaporized=""/>